/*--------------------------------*- C++ -*----------------------------------*\
| =========                 |                                                 |
| \\      /  F ield         | foam-extend: Open Source CFD                    |
|  \\    /   O peration     | Version:     4.1                                |
|   \\  /    A nd           | Web:         http://www.foam-extend.org         |
|    \\/     M anipulation  |                                                 |
\*---------------------------------------------------------------------------*/
FoamFile
{
    version     2.0;
    format      ascii;
    class       cellScalarField;
    location    "9";
    object      T;
}
// * * * * * * * * * * * * * * * * * * * * * * * * * * * * * * * * * * * * * //

dimensions      [0 0 0 0 1 0 0];

internalField   nonuniform 
100
(
(4 -5.703630593e-17 1.624202108e-17)
(4 4.447768684e-17 -1.766111735e-16)
(4 1.940308921e-15 6.985056324e-16)
(4 -3.691619669e-14 -1.618635789e-14)
(4 1.180625954e-12 8.254070674e-13)
(4 -2.143668696e-12 -4.974788118e-12)
(4 3.953836111e-10 4.300178293e-10)
(4.000000008 8.589089798e-09 3.288875358e-09)
(4.00000011 1.284985631e-07 1.128917671e-07)
(4.000002568 3.2095242e-06 1.821822695e-06)
(4.000035528 3.767980628e-05 1.996295535e-05)
(4.000420733 0.0004607421609 0.0002533685867)
(4.004575001 0.004739271668 0.002009056275)
(4.034165424 0.02953290982 0.008804147941)
(4.165837931 0.112806603 0.02258028273)
(4.550148466 0.2825963151 0.03487245658)
(5.32595168 0.4916613349 0.03011418906)
(6.45684378 0.6208324838 0.005925403611)
(7.688888647 0.5890981232 -0.02021941227)
(8.720789043 0.4322358789 -0.03114078884)
(9.401409149 0.2512972685 -0.02633258135)
(9.762496193 0.1182872446 -0.01577775721)
(9.91954045 0.04595922142 -0.007283692259)
(9.976514641 0.01500112935 -0.002709002312)
(9.994033787 0.004179756269 -0.0008364578567)
(9.998667231 0.001008772208 -0.000219348716)
(9.99973555 0.0002137000196 -4.97602015e-05)
(9.999952942 4.021466978e-05 -9.917353132e-06)
(9.999992423 6.79532299e-06 -1.759607743e-06)
(9.999998887 1.041055077e-06 -2.811298364e-07)
(9.99999985 1.458556983e-07 -4.085007116e-08)
(9.999999981 1.883236922e-08 -5.445746642e-09)
(9.999999998 2.256333952e-09 -6.711567713e-10)
(10 2.523931897e-10 -7.698885518e-11)
(10 2.650396234e-11 -8.268597705e-12)
(10 2.629339311e-12 -8.354602432e-13)
(10 2.462173964e-13 -7.987072477e-14)
(10 1.913347352e-14 -7.578419933e-15)
(10 2.620228864e-15 -5.937168372e-16)
(10 -4.708259696e-16 -5.521543968e-16)
(10 1.060535256e-15 -5.730006662e-16)
(10 -1.316258611e-15 4.35731647e-16)
(10 3.600602073e-16 -7.811041795e-16)
(10 3.217304073e-16 5.350204516e-16)
(10 5.863437617e-17 2.200287025e-16)
(10 1.539783129e-16 -2.728811581e-16)
(10 2.048318022e-16 3.396039804e-16)
(10 -2.48901451e-16 8.014342563e-16)
(10 -7.796741404e-17 -1.982491132e-16)
(10 2.116313038e-16 1.934948283e-16)
(10 -1.708770062e-16 -3.703431301e-16)
(10 2.132204525e-16 1.06770405e-17)
(10 -2.932133347e-17 1.856723545e-16)
(10 -2.668033958e-17 1.555712825e-16)
(10 -3.256216378e-16 1.109279766e-16)
(10 -1.076295788e-16 -5.517315049e-16)
(10 8.508022091e-17 2.736065946e-16)
(10 -2.298529763e-17 4.290503892e-16)
(10 3.40662429e-16 -2.564526035e-17)
(10 2.777063948e-16 3.597240342e-16)
(10 4.709694062e-17 -4.058191568e-16)
(10 2.816522114e-17 -7.038843214e-16)
(10 2.668165424e-16 3.46752899e-16)
(10 2.098385504e-16 6.352079373e-16)
(10 1.244758301e-16 5.602568939e-16)
(10 -2.910523051e-16 -4.103199689e-16)
(10 2.834331848e-16 9.866755621e-17)
(10 -5.409408732e-16 2.711401533e-16)
(10 1.638810577e-16 3.382575774e-16)
(10 1.151716705e-16 -3.509583742e-16)
(10 -2.127281539e-16 2.433090623e-16)
(10 -2.980814771e-17 9.862191673e-17)
(10 -3.427209818e-16 4.588437865e-16)
(10 -5.619699899e-17 -1.244791547e-16)
(10 1.058443492e-17 -3.079709449e-16)
(10 -1.095728617e-16 1.724493175e-16)
(10 -3.152749722e-16 -3.063104395e-16)
(10 -3.405254462e-16 -2.392138052e-16)
(10 2.89519004e-16 4.494675869e-16)
(10 -4.884724923e-16 4.162309362e-16)
(10 -3.416005079e-17 -2.017949339e-17)
(10 -1.211978972e-16 7.451010497e-17)
(10 -2.0783034e-16 3.386079116e-16)
(10 -3.460344677e-16 -5.48222837e-17)
(10 -4.077308312e-16 -3.072755195e-17)
(10 5.943933883e-16 -4.712290685e-16)
(10 -6.475134384e-18 1.05236753e-16)
(10 -1.593671191e-16 -5.750183036e-16)
(10 3.610322661e-16 -1.397187613e-16)
(10 -5.959907549e-17 -9.052737729e-17)
(10 3.634839453e-16 -1.278542971e-16)
(10 -1.675796112e-16 -3.525298529e-17)
(10 3.711401597e-16 3.213878139e-16)
(10 -4.577580063e-16 -7.78076163e-17)
(10 2.61971127e-16 2.944102588e-17)
(10 -1.365836193e-16 -1.744382481e-17)
(10 2.188365319e-16 -5.564608655e-16)
(10 1.000862126e-15 -5.078880228e-16)
(10 -1.354184948e-16 7.673887687e-17)
(10 -1.637454392e-15 3.964174963e-15)
)
;

boundaryField
{
    left
    {
        type            dirichlet;
        value           uniform (4 0 0);
    }
    right
    {
        type            dirichlet;
        value           uniform (4 0 0);
    }
    sides
    {
        type            empty;
    }
}


// ************************************************************************* //
