/*--------------------------------*- C++ -*----------------------------------*\
| =========                 |                                                 |
| \\      /  F ield         | foam-extend: Open Source CFD                    |
|  \\    /   O peration     | Version:     4.1                                |
|   \\  /    A nd           | Web:         http://www.foam-extend.org         |
|    \\/     M anipulation  |                                                 |
\*---------------------------------------------------------------------------*/
FoamFile
{
    version     2.0;
    format      ascii;
    class       cellScalarField;
    location    "2.4";
    object      T;
}
// * * * * * * * * * * * * * * * * * * * * * * * * * * * * * * * * * * * * * //

dimensions      [0 0 0 0 1 0 0];

internalField   nonuniform 10((4.00004084 0.0001019887913 6.63941508e-05) (4.000467024 -0.000687639678 -0.0002627884832) (4.025571645 0.0487300862 0.04295458773) (4.562547757 0.5807396562 0.1367520087) (6.429387866 1.194805651 0.004961486552) (8.581129036 0.8430555372 -0.1096141805) (9.661000796 0.2743952741 -0.05882400785) (9.946630999 0.0515145687 -0.01379048817) (9.993837836 0.006631198977 -0.002008095121) (9.99943331 0.0006560216114 -0.0002148719831));

boundaryField
{
    left
    {
        type            dirichlet;
        value           uniform (4 0 0);
    }
    right
    {
        type            dirichlet;
        value           uniform (4 0 0);
    }
    sides
    {
        type            empty;
    }
}


// ************************************************************************* //
