/*--------------------------------*- C++ -*----------------------------------*\
| =========                 |                                                 |
| \\      /  F ield         | foam-extend: Open Source CFD                    |
|  \\    /   O peration     | Version:     4.1                                |
|   \\  /    A nd           | Web:         http://www.foam-extend.org         |
|    \\/     M anipulation  |                                                 |
\*---------------------------------------------------------------------------*/
FoamFile
{
    version     2.0;
    format      ascii;
    class       cellScalarField;
    location    "50";
    object      T;
}
// * * * * * * * * * * * * * * * * * * * * * * * * * * * * * * * * * * * * * //

dimensions      [0 0 0 0 1 0 0];

internalField   nonuniform 
100
(
(4 -5.703630593e-17 1.624202108e-17)
(4 1.658199314e-17 -3.503967721e-17)
(4 -4.539666619e-18 1.059672225e-17)
(4 -1.042638251e-16 -1.163509238e-16)
(4 3.605454291e-17 9.673645567e-17)
(4 -4.149528038e-16 1.697199762e-16)
(4 4.680668069e-16 5.107967466e-17)
(4 -5.039579038e-16 -5.525221967e-17)
(4 9.604503397e-16 -2.04380791e-16)
(4 -1.324527312e-15 1.891293284e-16)
(4 4.583694108e-17 5.351729192e-17)
(4 4.181215873e-16 -2.871409929e-17)
(4 4.389475444e-16 -4.437419843e-17)
(4 4.383592752e-17 -1.292381946e-16)
(4 -2.233283618e-16 1.386879363e-16)
(4 -1.530964197e-17 2.772060423e-16)
(4 -3.903662233e-17 3.373896727e-17)
(4 -1.918491702e-16 4.172577871e-17)
(4 3.204698675e-17 1.362634302e-16)
(4 1.635911955e-16 -1.316850457e-16)
(4 -1.681350156e-16 -3.144141528e-17)
(4 -2.820453594e-17 -4.052509822e-17)
(4 1.143642035e-16 -1.366006781e-16)
(4 -1.924146021e-16 -1.449160557e-16)
(4 2.445430544e-17 1.827898749e-17)
(4 -2.098450014e-16 5.073454408e-17)
(4 1.715609544e-16 -1.291424862e-16)
(4 -1.669395798e-16 -3.872475067e-18)
(4 -4.865267485e-16 1.199213915e-16)
(4 4.048099263e-16 -8.317264376e-18)
(4 -1.96108988e-16 2.524906784e-16)
(4 -7.436100254e-17 -1.445999102e-16)
(4 9.911793186e-17 -9.116021145e-17)
(4 -5.019575551e-16 8.357947638e-17)
(4 3.654193484e-16 -3.033502537e-17)
(4 -2.737753913e-16 -1.909764989e-16)
(4 8.310415791e-16 -2.58062957e-17)
(4 -8.279005558e-16 2.697541354e-16)
(4 4.10885026e-16 7.88588044e-17)
(4 -1.642261627e-16 2.37640863e-16)
(4 -3.417452518e-17 -5.203389303e-17)
(4 7.351010492e-17 4.886664365e-17)
(4 -2.560972893e-16 -7.158503787e-17)
(4 2.639086656e-17 -1.464731059e-16)
(4 -4.844914078e-16 -8.13864714e-17)
(4 8.854972167e-16 3.891572707e-17)
(4 -7.351388486e-16 -9.97846484e-17)
(4 8.533311517e-16 1.434986057e-16)
(4 -8.760306413e-16 -3.247078091e-16)
(4 5.181309968e-16 6.372735425e-19)
(4 -3.542218473e-17 1.906100302e-16)
(4 -4.685196084e-17 -2.779740536e-17)
(4 -7.035635741e-17 3.338944793e-16)
(4 -2.364958252e-16 4.549904731e-17)
(4 1.07032246e-17 -5.322033087e-17)
(4 4.900484787e-17 2.174948274e-16)
(4 -1.859601566e-16 -2.046064335e-16)
(4 2.279523261e-17 -1.870931879e-16)
(4 7.103440627e-17 -1.902283203e-16)
(4 -6.369919209e-17 -7.739752051e-17)
(4 -1.607447497e-16 -1.72476191e-16)
(4 2.380310607e-16 -4.731060099e-17)
(4 -2.10786005e-16 6.597296599e-17)
(4 -1.110283332e-16 -3.715345577e-17)
(4 -1.620249931e-16 1.974387312e-16)
(4 2.792408597e-17 -1.290634415e-16)
(4 2.108692948e-16 2.536221932e-16)
(4 2.605050895e-15 1.259222938e-15)
(4 2.235750431e-14 9.319153623e-15)
(4 1.615075837e-13 6.463239854e-14)
(4 1.104531011e-12 4.255595691e-13)
(4 7.114765377e-12 2.636404269e-12)
(4 4.300788737e-11 1.525232347e-11)
(4 2.432716356e-10 8.232352244e-11)
(4.000000002 1.284689438e-09 4.134837891e-10)
(4.000000008 6.320840692e-09 1.928584918e-09)
(4.00000004 2.892749808e-08 8.340071968e-09)
(4.000000175 1.229999032e-07 3.340307636e-08)
(4.000000725 4.855957663e-07 1.238345751e-07)
(4.000002791 1.779698326e-06 4.248968893e-07)
(4.000010004 6.056563357e-06 1.349642298e-06)
(4.000033416 1.915015204e-05 3.970789036e-06)
(4.000104106 5.630677139e-05 1.082860871e-05)
(4.000302847 0.0001541191849 2.739505258e-05)
(4.000823705 0.0003931777082 6.435197492e-05)
(4.002097778 0.0009361116645 0.0001404823059)
(4.005010389 0.002082901889 0.0002852318975)
(4.011241596 0.004337311673 0.0005389868183)
(4.023734339 0.008464362499 0.0009483275186)
(4.04723788 0.01550232068 0.001553840443)
(4.088789329 0.02668246805 0.002370322657)
(4.157907709 0.04321829822 0.003363434118)
(4.266230456 0.06596182639 0.004431585247)
(4.42637575 0.09498523353 0.005404291685)
(4.649996055 0.1292100946 0.006065566235)
(4.94527266 0.1662399867 0.006202392767)
(5.314394587 0.2025248987 0.005666672448)
(5.751735554 0.2338913564 0.004429851111)
(6.243380045 0.25633976 0.002608328333)
(6.768331667 0.2668959349 0.000446756844)
)
;

boundaryField
{
    left
    {
        type            dirichlet;
        value           uniform (4 0 0);
    }
    right
    {
        type            dirichlet;
        value           uniform (4 0 0);
    }
    sides
    {
        type            empty;
    }
}


// ************************************************************************* //
