/*--------------------------------*- C++ -*----------------------------------*\
| =========                 |                                                 |
| \\      /  F ield         | foam-extend: Open Source CFD                    |
|  \\    /   O peration     | Version:     4.1                                |
|   \\  /    A nd           | Web:         http://www.foam-extend.org         |
|    \\/     M anipulation  |                                                 |
\*---------------------------------------------------------------------------*/
FoamFile
{
    version     2.0;
    format      ascii;
    class       cellScalarField;
    location    "32.5";
    object      T;
}
// * * * * * * * * * * * * * * * * * * * * * * * * * * * * * * * * * * * * * //

dimensions      [0 0 0 0 1 0 0];

internalField   nonuniform 
100
(
(4 -5.703630593e-17 1.624202108e-17)
(4 9.662650136e-17 1.64566679e-16)
(4 -3.592659311e-18 -9.238526284e-17)
(4 2.049787263e-16 -7.67289907e-17)
(4 -4.630854188e-17 2.435396194e-16)
(4 -6.449375162e-16 -1.454356192e-16)
(4 4.71503398e-16 -3.214273931e-17)
(4 -5.085899943e-16 2.183227151e-16)
(4 1.027613008e-15 6.730246873e-17)
(4 -1.137191474e-15 2.172997204e-16)
(4 9.764739971e-17 4.340343512e-17)
(4 -2.848570108e-16 1.777916304e-16)
(4 9.54797274e-16 -4.534979118e-17)
(4 -1.544492307e-16 -3.951409776e-18)
(4 2.15808149e-16 1.705083955e-16)
(4 -5.994894015e-16 9.331562473e-17)
(4 7.662979299e-16 7.570136348e-17)
(4 -8.584364631e-16 -2.085770227e-16)
(4 9.60049298e-16 1.294586595e-16)
(4 -5.866826039e-16 -1.600841702e-16)
(4 4.053667565e-16 -1.259118337e-17)
(4 -2.424328783e-16 -1.215069502e-17)
(4 1.758607174e-16 -3.606291279e-17)
(4 -1.342247036e-16 4.267893811e-17)
(4 1.033341761e-16 1.435182987e-16)
(4 -7.382714076e-17 2.114802653e-16)
(4 -1.305309342e-16 2.85300448e-16)
(4 -4.371376043e-17 3.573213885e-16)
(4 -3.370434492e-16 3.5709488e-17)
(4 2.335924172e-16 -1.555806076e-17)
(4 3.10763533e-16 2.174667776e-17)
(4 -1.024652483e-16 4.323420603e-17)
(4 -2.381175887e-16 1.319281987e-16)
(4 -3.269736057e-16 -2.220505093e-17)
(4 8.30110898e-16 -9.60985326e-17)
(4 -9.251578927e-16 -6.555684148e-17)
(4 5.993658798e-16 7.52072102e-18)
(4 -3.555079891e-16 5.165245974e-18)
(4 3.291748999e-16 3.662377818e-16)
(4 1.538104852e-14 8.23587437e-15)
(4 1.660068892e-13 8.281248707e-14)
(4 1.646156022e-12 7.860659766e-13)
(4 1.520910526e-11 6.985674495e-12)
(4 1.304103139e-10 5.730304867e-11)
(4.000000001 1.031632805e-09 4.315178473e-10)
(4.000000008 7.486402465e-09 2.963238029e-09)
(4.000000056 4.951091534e-08 1.841135346e-08)
(4.000000352 2.962339155e-07 1.026509476e-07)
(4.00000199 1.592323965e-06 5.098596194e-07)
(4.000010133 7.64744402e-06 2.244615232e-06)
(4.000046265 3.27100782e-05 8.735647275e-06)
(4.000189198 0.0001244754646 3.003811334e-05)
(4.000693329 0.0004217552282 9.134135291e-05)
(4.002281155 0.001274965559 0.0002460542494)
(4.006757945 0.003448478076 0.0005883634972)
(4.018090522 0.00837269067 0.001251242729)
(4.043930881 0.01831091758 0.002369898434)
(4.097181622 0.03619720037 0.003999644256)
(4.196687935 0.06489997136 0.006008563425)
(4.365839873 0.1058895638 0.008006279221)
(4.628234882 0.1577152645 0.009385437335)
(5.000778946 0.2150864631 0.009509651504)
(5.486260579 0.269347017 0.00798951433)
(6.068511289 0.3105621287 0.004907495989)
(6.712829573 0.3305519764 0.0008534506167)
(7.372308588 0.32557281 -0.003269541439)
(7.998083553 0.2974298891 -0.006576552072)
(8.549795422 0.2525883431 -0.008502359722)
(9.002694213 0.1998275754 -0.008937130762)
(9.349561637 0.147568258 -0.008165065156)
(9.597899283 0.10192296 -0.006676721391)
(9.764412529 0.06596383595 -0.004965691829)
(9.869164608 0.04007537705 -0.003393084666)
(9.93109972 0.02289508962 -0.002145126242)
(9.965574285 0.01232053243 -0.001261330902)
(9.983668997 0.006255246024 -0.0006926607372)
(9.992638673 0.003001028276 -0.0003564595858)
(9.996844337 0.00136260035 -0.0001724103789)
(9.998712291 0.000586383472 -7.85756642e-05)
(9.999499325 0.0002395151834 -3.382010974e-05)
(9.999814333 9.298820402e-05 -1.377604066e-05)
(9.999934266 3.436009831e-05 -5.320648278e-06)
(9.999977758 1.209997462e-05 -1.951934476e-06)
(9.999992801 4.06606189e-06 -6.813145479e-07)
(9.999997768 1.305460048e-06 -2.266166246e-07)
(9.999999337 4.009396456e-07 -7.19352585e-08)
(9.999999811 1.179319665e-07 -2.182281672e-08)
(9.999999948 3.325969989e-08 -6.335540592e-09)
(9.999999986 9.003740907e-09 -1.762465591e-09)
(9.999999997 2.342149888e-09 -4.703897414e-10)
(9.999999999 5.860764021e-10 -1.205902229e-10)
(10 1.412128221e-10 -2.97280385e-11)
(10 3.27964303e-11 -7.05662373e-12)
(10 7.347179385e-12 -1.613294163e-12)
(10 1.590934749e-12 -3.570560787e-13)
(10 3.276551828e-13 -7.705379355e-14)
(10 6.408487552e-14 -1.220727559e-14)
(10 1.930985681e-14 -2.85674379e-15)
(10 6.065555576e-15 -2.93715842e-15)
(10 4.642363141e-16 3.036694303e-15)
)
;

boundaryField
{
    left
    {
        type            dirichlet;
        value           uniform (4 0 0);
    }
    right
    {
        type            dirichlet;
        value           uniform (4 0 0);
    }
    sides
    {
        type            empty;
    }
}


// ************************************************************************* //
