/*--------------------------------*- C++ -*----------------------------------*\
| =========                 |                                                 |
| \\      /  F ield         | foam-extend: Open Source CFD                    |
|  \\    /   O peration     | Version:     4.1                                |
|   \\  /    A nd           | Web:         http://www.foam-extend.org         |
|    \\/     M anipulation  |                                                 |
\*---------------------------------------------------------------------------*/
FoamFile
{
    version     2.0;
    format      ascii;
    class       cellScalarField;
    location    "22.3";
    object      T;
}
// * * * * * * * * * * * * * * * * * * * * * * * * * * * * * * * * * * * * * //

dimensions      [0 0 0 0 1 0 0];

internalField   nonuniform 
100
(
(4 -5.703630593e-17 1.624202108e-17)
(4 1.036513415e-16 8.775847612e-17)
(4 -1.780386099e-16 8.072663523e-17)
(4 2.419679354e-16 -2.05775567e-16)
(4 -3.584668107e-17 6.592765352e-17)
(4 -2.616563677e-16 2.246913779e-16)
(4 2.160687785e-16 2.225268577e-16)
(4 -4.404770029e-16 1.751321927e-17)
(4 9.581410035e-16 3.251589561e-17)
(4 -1.435757196e-15 2.486245097e-16)
(4 3.415539282e-16 -2.79400987e-17)
(4 4.670582612e-16 -8.460015918e-17)
(4 -1.718046832e-16 -1.542436638e-16)
(4 -2.230774143e-16 -2.006434438e-17)
(4 7.493776175e-16 3.57443192e-17)
(4 -1.05257196e-15 -2.002739233e-17)
(4 1.004486018e-15 -2.229406206e-16)
(4 -6.258767746e-16 2.659141681e-16)
(4 1.402426176e-16 -1.674237132e-16)
(4 -2.020947737e-17 -1.349488113e-16)
(4 3.343976428e-17 2.588485594e-16)
(4 2.017151274e-15 -2.388922066e-16)
(4 2.115782021e-15 3.428077455e-16)
(4 2.611353874e-14 1.627508379e-14)
(4 3.923557513e-13 2.261380166e-13)
(4 5.270564389e-12 2.909368188e-12)
(4 6.455871375e-11 3.420411903e-11)
(4.000000001 7.253714514e-10 3.682194611e-10)
(4.000000007 7.426751682e-09 3.575820029e-09)
(4.000000069 6.842233003e-08 3.103227581e-08)
(4.000000587 5.637589209e-07 2.390202016e-07)
(4.000004479 4.107249579e-06 1.602293167e-06)
(4.00003 2.592008227e-05 9.114436683e-06)
(4.000173424 0.0001389666545 4.321262648e-05)
(4.000855503 0.0006263068937 0.0001695470892)
(4.003588866 0.002368746459 0.000550743111)
(4.012837506 0.007547739156 0.001486914693)
(4.039404602 0.02039894051 0.00335166025)
(4.104645832 0.04712565624 0.006327306204)
(4.242625957 0.09379329302 0.01000152596)
(4.495771195 0.1620357944 0.01314979402)
(4.901426707 0.2446921148 0.01408994123)
(5.472843121 0.3250979542 0.0116078366)
(6.184589637 0.382287545 0.005863808788)
(6.972822688 0.4000787406 -0.00147090845)
(7.75291975 0.3745434417 -0.008043364212)
(8.446128445 0.3151581344 -0.01203032201)
(9.001680337 0.2394190202 -0.01289685753)
(9.404896873 0.1648959214 -0.01131939287)
(9.670976217 0.1033706607 -0.008536556975)
(9.831212016 0.05920324641 -0.005668217008)
(9.919585192 0.03108845269 -0.003363222747)
(9.964372994 0.01501863676 -0.001801569286)
(9.985298645 0.00669648403 -0.0008779583828)
(9.994339739 0.002764363875 -0.0003916533094)
(9.997962791 0.001059661505 -0.0001607606038)
(9.999313237 0.0003782702118 -6.098927466e-05)
(9.999782721 0.0001260928368 -2.147096667e-05)
(9.999935353 3.935277567e-05 -7.039413168e-06)
(9.999981876 1.152804051e-05 -2.156449115e-06)
(9.999995202 3.177503459e-06 -6.191324983e-07)
(9.999998799 8.26000739e-07 -1.670716761e-07)
(9.999999715 2.029605668e-07 -4.248659999e-08)
(9.999999936 4.724038362e-08 -1.020745054e-08)
(9.999999986 1.043713743e-08 -2.322327971e-09)
(9.999999997 2.193182186e-09 -5.014624881e-10)
(9.999999999 4.391514319e-10 -1.029875316e-10)
(10 8.394235375e-11 -2.015776975e-11)
(10 1.534175232e-11 -3.766794286e-12)
(10 2.685431797e-12 -6.727466868e-13)
(10 4.495448971e-13 -1.162479906e-13)
(10 7.198856941e-14 -1.796952542e-14)
(10 1.41641861e-14 -3.38604434e-15)
(10 -2.23968999e-16 -3.115169515e-16)
(10 4.203685887e-16 -6.173577009e-16)
(10 3.212621314e-16 1.441207969e-17)
(10 -3.891855045e-16 7.914721808e-16)
(10 -3.199624379e-16 2.791707473e-16)
(10 2.650274269e-16 -3.160438213e-16)
(10 1.635870881e-17 8.943134407e-17)
(10 -2.806190746e-16 1.458394936e-16)
(10 2.286188525e-16 -1.412569122e-16)
(10 -1.644771665e-16 -2.67783772e-18)
(10 2.145187521e-17 3.294573298e-16)
(10 -6.188393565e-16 1.449183e-16)
(10 -8.616539397e-17 -4.265883271e-17)
(10 -2.796214251e-16 2.177146514e-16)
(10 -3.622696098e-17 3.99127153e-16)
(10 4.01937402e-16 1.199329915e-16)
(10 6.521615899e-17 -1.458650674e-16)
(10 8.970217476e-17 -5.636930774e-16)
(10 -1.807097364e-16 -7.733854581e-17)
(10 -1.629075308e-16 -9.154455747e-17)
(10 2.923989268e-16 2.89949817e-16)
(10 1.082901464e-16 1.776072669e-16)
(10 -5.111012171e-16 4.357386034e-16)
(10 1.895989513e-16 1.223684684e-16)
(10 -1.986596029e-16 -8.867335674e-17)
(10 9.597406897e-17 -1.992654998e-16)
(10 -2.118803968e-15 3.429841299e-15)
)
;

boundaryField
{
    left
    {
        type            dirichlet;
        value           uniform (4 0 0);
    }
    right
    {
        type            dirichlet;
        value           uniform (4 0 0);
    }
    sides
    {
        type            empty;
    }
}


// ************************************************************************* //
