/*--------------------------------*- C++ -*----------------------------------*\
| =========                 |                                                 |
| \\      /  F ield         | foam-extend: Open Source CFD                    |
|  \\    /   O peration     | Version:     4.1                                |
|   \\  /    A nd           | Web:         http://www.foam-extend.org         |
|    \\/     M anipulation  |                                                 |
\*---------------------------------------------------------------------------*/
FoamFile
{
    version     2.0;
    format      ascii;
    class       cellScalarField;
    location    "1.7";
    object      T;
}
// * * * * * * * * * * * * * * * * * * * * * * * * * * * * * * * * * * * * * //

dimensions      [0 0 0 0 1 0 0];

internalField   nonuniform 10((4.000484689 -0.0008682131289 -0.001257829925) (4.029255799 0.06706823033 0.07347725427) (4.899263949 0.9334706829 0.1761348768) (7.420819345 1.352769102 -0.1021407823) (9.350914579 0.5420278399 -0.1156365809) (9.908722726 0.09449104476 -0.0269621289) (9.991238528 0.01016074488 -0.003305486557) (9.999344149 0.0008159341304 -0.000286413643) (9.999958658 5.397044051e-05 -1.992600877e-05) (9.999997701 3.10946143e-06 -1.190591065e-06));

boundaryField
{
    left
    {
        type            dirichlet;
        value           uniform (4 0 0);
    }
    right
    {
        type            dirichlet;
        value           uniform (4 0 0);
    }
    sides
    {
        type            empty;
    }
}


// ************************************************************************* //
