-0.9475 -0.99999593331
-0.85 -0.999986414867
-0.75 -0.999945099783
-0.65 -0.999775304716
-0.55 -0.999079933806
-0.45 -0.996236921417
-0.35 -0.984683946965
-0.25 -0.938871667659
-0.15 -0.773376369866
-0.05 -0.32754486966
0.05 0.32754486966
0.15 0.773376369866
0.25 0.938871667659
0.35 0.984683946965
0.45 0.996236921417
0.55 0.999079933806
0.65 0.999775304716
0.75 0.999945099783
0.85 0.999986414867
