/*--------------------------------*- C++ -*----------------------------------*\
| =========                 |                                                 |
| \\      /  F ield         | foam-extend: Open Source CFD                    |
|  \\    /   O peration     | Version:     4.1                                |
|   \\  /    A nd           | Web:         http://www.foam-extend.org         |
|    \\/     M anipulation  |                                                 |
\*---------------------------------------------------------------------------*/
FoamFile
{
    version     2.0;
    format      ascii;
    class       cellScalarField;
    location    "25.6";
    object      T;
}
// * * * * * * * * * * * * * * * * * * * * * * * * * * * * * * * * * * * * * //

dimensions      [0 0 0 0 1 0 0];

internalField   nonuniform 
100
(
(4 -5.703630593e-17 1.624202108e-17)
(4 -1.064746348e-16 -8.441269709e-17)
(4 -2.723467273e-17 7.064753001e-17)
(4 -1.087566617e-16 3.447900648e-16)
(4 2.418616831e-16 -1.442554683e-16)
(4 -4.275978782e-16 3.158241228e-17)
(4 1.64624388e-16 2.746567008e-16)
(4 -3.042131746e-16 2.433179643e-16)
(4 8.020446279e-16 -2.439432855e-17)
(4 -1.348262495e-15 -2.138143969e-16)
(4 2.530864185e-16 1.381779776e-16)
(4 1.444673232e-15 1.205785734e-16)
(4 -1.838159041e-15 -2.210711212e-17)
(4 1.015178632e-15 -1.46852105e-16)
(4 2.67748428e-16 1.523238648e-16)
(4 -5.40486958e-19 3.080370704e-16)
(4 1.270507381e-16 1.672677696e-16)
(4 2.31262768e-17 3.656443986e-16)
(4 -1.887996292e-16 2.739487725e-17)
(4 -1.134405449e-17 1.253342257e-16)
(4 -3.14205805e-16 -2.961760179e-17)
(4 1.475254106e-16 -1.710985645e-16)
(4 -1.185806132e-17 2.536491859e-16)
(4 -2.419397511e-16 2.347039993e-17)
(4 2.173443977e-16 2.4882469e-16)
(4 -4.064354351e-16 -3.699140084e-16)
(4 8.283102874e-16 1.746675344e-16)
(4 -3.103723184e-16 1.025645871e-15)
(4 1.856942763e-14 9.850413227e-15)
(4 2.199495208e-13 1.19187076e-13)
(4 2.638623933e-12 1.3901951e-12)
(4 2.943023583e-11 1.491201606e-11)
(4 3.02614785e-10 1.467596833e-10)
(4.000000003 2.848447217e-09 1.313453895e-09)
(4.000000025 2.435118209e-08 1.060806456e-08)
(4.0000002 1.877081342e-07 7.661559892e-08)
(4.000001442 1.290968763e-06 4.876588993e-07)
(4.000009218 7.811300183e-06 2.691161202e-06)
(4.000051802 4.105359755e-05 1.271986795e-05)
(4.000253771 0.0001859571979 5.118501633e-05)
(4.001080276 0.0007242577198 0.0001751951385)
(4.003999653 0.002429643894 0.0005111170898)
(4.012928401 0.007049643709 0.001275137795)
(4.036684654 0.01778657582 0.002728981367)
(4.091965433 0.03924918859 0.005020102251)
(4.205094052 0.07618972637 0.007934964127)
(4.409794673 0.130831463 0.01072800653)
(4.7389918 0.1997875429 0.0122473392)
(5.21181373 0.2726533826 0.01142845156)
(5.821107349 0.3340744967 0.007922542443)
(6.528562815 0.3690934931 0.002432115354)
(7.27167375 0.3691812759 -0.003528215587)
(7.980471511 0.335578414 -0.008325001393)
(8.596557868 0.2781912078 -0.01091542695)
(9.086181597 0.2110306892 -0.01116541427)
(9.443092516 0.1469541383 -0.009681365093)
(9.682446491 0.09422470164 -0.007368477736)
(9.83054507 0.05578865925 -0.005016328368)
(9.915322794 0.03058591355 -0.003091222531)
(9.960339604 0.01556816227 -0.001738777363)
(9.982568911 0.007375537216 -0.000898435604)
(9.992801603 0.00326022883 -0.0004286267274)
(9.997202917 0.001347779792 -0.0001896201568)
(9.998975813 0.0005222610537 -7.80760633e-05)
(9.999646065 0.0001901081565 -3.002018036e-05)
(9.999884384 6.51435944e-05 -1.0811021e-05)
(9.999964245 2.105631268e-05 -3.656501633e-06)
(9.999989515 6.432560863e-06 -1.16442125e-06)
(9.99999708 1.860794607e-06 -3.499661547e-07)
(9.999999227 5.106454424e-07 -9.94894841e-08)
(9.999999805 1.331719909e-07 -2.680850398e-08)
(9.999999953 3.306114463e-08 -6.860770188e-09)
(9.999999989 7.826140027e-09 -1.670688731e-09)
(9.999999998 1.769248409e-09 -3.878088442e-10)
(9.999999999 3.825627566e-10 -8.595599511e-11)
(10 7.923497396e-11 -1.82215413e-11)
(10 1.574302661e-11 -3.700233945e-12)
(10 3.005329281e-12 -7.221958203e-13)
(10 5.48000192e-13 -1.344514139e-13)
(10 9.853785226e-14 -2.345642544e-14)
(10 1.695168574e-14 -3.724106944e-15)
(10 4.766135934e-15 -1.658486996e-15)
(10 -2.509409962e-16 4.047410906e-16)
(10 -5.011432899e-16 2.957208906e-16)
(10 -3.819091502e-16 -3.880204528e-16)
(10 1.766195304e-16 -1.44224488e-16)
(10 6.670582234e-16 -4.229248981e-16)
(10 -3.666117293e-16 -6.005539617e-16)
(10 1.816790951e-16 -1.407264526e-16)
(10 2.093847052e-16 -2.704255859e-18)
(10 2.579360624e-16 -9.801761853e-17)
(10 1.251997039e-16 3.085592921e-16)
(10 -4.849554586e-16 2.779171712e-16)
(10 -4.601817893e-16 3.994415735e-16)
(10 -2.966633405e-16 1.80861442e-16)
(10 -5.241908908e-16 1.663415406e-16)
(10 1.043031051e-17 5.07430767e-16)
(10 -2.608259596e-16 8.012471376e-16)
(10 -1.063062248e-16 5.666811388e-16)
(10 -4.548760908e-16 3.222267954e-15)
)
;

boundaryField
{
    left
    {
        type            dirichlet;
        value           uniform (4 0 0);
    }
    right
    {
        type            dirichlet;
        value           uniform (4 0 0);
    }
    sides
    {
        type            empty;
    }
}


// ************************************************************************* //
