/*--------------------------------*- C++ -*----------------------------------*\
| =========                 |                                                 |
| \\      /  F ield         | foam-extend: Open Source CFD                    |
|  \\    /   O peration     | Version:     4.1                                |
|   \\  /    A nd           | Web:         http://www.foam-extend.org         |
|    \\/     M anipulation  |                                                 |
\*---------------------------------------------------------------------------*/
FoamFile
{
    version     2.0;
    format      ascii;
    class       cellScalarField;
    location    "40";
    object      T;
}
// * * * * * * * * * * * * * * * * * * * * * * * * * * * * * * * * * * * * * //

dimensions      [0 0 0 0 1 0 0];

internalField   nonuniform 
100
(
(4 -5.703630593e-17 1.624202108e-17)
(4 -6.438708243e-17 6.000365003e-17)
(4 -5.459707285e-17 -4.077527013e-19)
(4 -6.587977228e-17 -1.085791547e-16)
(4 -1.087848549e-16 8.706128349e-17)
(4 -6.68181507e-16 -5.070340505e-17)
(4 4.772731014e-16 -8.884004319e-17)
(4 -2.263043891e-16 -2.550735792e-17)
(4 8.909192076e-16 2.457852475e-17)
(4 -1.203742776e-15 9.902120714e-17)
(4 3.620604011e-16 -9.729178863e-17)
(4 -3.112988756e-16 2.111271249e-16)
(4 9.286324037e-16 1.180430965e-17)
(4 -1.00459142e-15 4.248525147e-16)
(4 2.008499043e-16 -6.658554833e-17)
(4 -1.18010823e-16 -1.094806541e-16)
(4 1.077887279e-16 -5.514605114e-17)
(4 3.19212886e-18 -9.360055855e-17)
(4 -1.046631101e-16 -6.827978936e-17)
(4 1.272488273e-16 -1.45751726e-16)
(4 -2.224002977e-17 4.999633206e-17)
(4 3.151250613e-17 -2.036302046e-17)
(4 2.474316733e-17 5.023608178e-17)
(4 -1.118934875e-16 1.820441835e-16)
(4 -9.408873525e-17 2.103306892e-16)
(4 -2.034064285e-16 -1.792039485e-16)
(4 6.552946822e-17 -6.488628132e-18)
(4 1.263340377e-17 -1.167664996e-16)
(4 -3.952056232e-16 3.419296217e-16)
(4 3.226049866e-16 4.667624252e-17)
(4 2.173001349e-16 2.619992911e-16)
(4 -5.726636003e-16 -2.605096133e-16)
(4 1.013413908e-15 8.815796611e-18)
(4 -1.323779025e-15 5.059819316e-17)
(4 1.195997377e-15 2.822093118e-17)
(4 -1.016607558e-15 -2.472827714e-16)
(4 1.424717695e-15 -7.066508482e-17)
(4 -1.288519308e-15 1.04565288e-16)
(4 1.075058832e-15 8.251178465e-17)
(4 -7.156914938e-16 3.984693722e-16)
(4 5.360304405e-16 -1.566176924e-17)
(4 -5.441950491e-16 1.617827224e-16)
(4 7.012290814e-17 -1.78348012e-16)
(4 -9.718115551e-17 3.86323145e-17)
(4 -4.110530221e-16 -8.280622119e-17)
(4 1.07800659e-15 -8.375706758e-17)
(4 -7.492841223e-16 1.928162008e-16)
(4 7.97537282e-16 2.08041771e-16)
(4 -9.789873284e-16 -6.169329592e-18)
(4 3.400537955e-16 1.207975419e-16)
(4 4.721227733e-16 4.06298446e-16)
(4 7.579177572e-15 4.479000301e-15)
(4 8.421935959e-14 3.821095398e-14)
(4 7.184136229e-13 3.158220516e-13)
(4 5.713091601e-12 2.407449797e-12)
(4 4.231041254e-11 1.707672564e-11)
(4 2.913554228e-10 1.12155521e-10)
(4.000000002 1.857214052e-09 6.786229003e-10)
(4.000000013 1.091034531e-08 3.764863812e-09)
(4.000000074 5.882243713e-08 1.906745283e-08)
(4.00000038 2.900288717e-07 8.785030883e-08)
(4.000001796 1.304406991e-06 3.673386817e-07)
(4.000007776 5.343320133e-06 1.392250338e-06)
(4.00003079 1.992695488e-05 4.781614857e-06)
(4.000111532 6.768491837e-05 1.48882377e-05)
(4.00037 0.0002096284727 4.206767497e-05)
(4.001125979 0.0005929441011 0.0001080038397)
(4.00314977 0.00153468606 0.0002522929435)
(4.008118378 0.003642403606 0.0005369136662)
(4.019329061 0.007944774326 0.001042067627)
(4.042625908 0.01596154966 0.001845716126)
(4.087311877 0.02960306373 0.002983525891)
(4.166595322 0.05079429613 0.004397466547)
(4.29698319 0.08080368581 0.005895976184)
(4.496148321 0.1194194296 0.007156334753)
(4.77926026 0.1642867374 0.007790100896)
(5.154481269 0.2107831184 0.007463693459)
(5.618979 0.252675814 0.006031605963)
(6.157000732 0.2834931499 0.003621522312)
(6.741061745 0.2981936462 0.0006246689918)
(7.336247943 0.294529009 -0.002412799641)
(7.906479256 0.2735907884 -0.004954125309)
(8.420872363 0.2393663248 -0.006623824844)
(8.858398464 0.1975302747 -0.007289673606)
(9.20977647 0.1539615094 -0.007054516269)
(9.476575127 0.1134950388 -0.006178186455)
(9.66834874 0.07922952984 -0.004972903527)
(9.799004988 0.05244260046 -0.003714170795)
(9.883480549 0.03295286064 -0.002590802456)
(9.935372439 0.01967990713 -0.001695840417)
(9.965692415 0.01118326561 -0.001045449747)
(9.982561789 0.006053559595 -0.0006087962214)
(9.991508775 0.003124766331 -0.0003357102417)
(9.996036886 0.001539729768 -0.0001756728474)
(9.998225972 0.0007249962476 -8.739874108e-05)
(9.999237894 0.0003265308981 -4.140905424e-05)
(9.999685598 0.000140809669 -1.871279466e-05)
(9.999875359 5.819324941e-05 -8.076933457e-06)
(9.999952484 2.306997914e-05 -3.334168423e-06)
(9.999982569 8.781109737e-06 -1.317937971e-06)
)
;

boundaryField
{
    left
    {
        type            dirichlet;
        value           uniform (4 0 0);
    }
    right
    {
        type            dirichlet;
        value           uniform (4 0 0);
    }
    sides
    {
        type            empty;
    }
}


// ************************************************************************* //
