/*--------------------------------*- C++ -*----------------------------------*\
| =========                 |                                                 |
| \\      /  F ield         | foam-extend: Open Source CFD                    |
|  \\    /   O peration     | Version:     4.1                                |
|   \\  /    A nd           | Web:         http://www.foam-extend.org         |
|    \\/     M anipulation  |                                                 |
\*---------------------------------------------------------------------------*/
FoamFile
{
    version     2.0;
    format      ascii;
    class       cellScalarField;
    location    "37.7";
    object      T;
}
// * * * * * * * * * * * * * * * * * * * * * * * * * * * * * * * * * * * * * //

dimensions      [0 0 0 0 1 0 0];

internalField   nonuniform 
100
(
(4 -5.703630593e-17 1.624202108e-17)
(4 -3.183956787e-17 -4.451585042e-17)
(4 -1.288759896e-16 -1.288692358e-16)
(4 3.278087764e-17 -2.517058265e-17)
(4 -3.015216022e-17 1.512500359e-16)
(4 -5.030441844e-16 -7.772516065e-17)
(4 4.762380118e-16 1.177107907e-16)
(4 -4.02964402e-16 9.429102922e-17)
(4 7.651419599e-16 -8.241564555e-17)
(4 -1.315281423e-15 -2.357543795e-17)
(4 3.545880879e-16 1.697282761e-17)
(4 -3.260617728e-16 -1.647519979e-16)
(4 1.389914552e-15 -1.493477254e-16)
(4 -6.25028822e-16 2.059245469e-16)
(4 4.388690357e-16 1.749028715e-16)
(4 -2.521455042e-16 8.012477463e-17)
(4 2.503959866e-16 -9.709174637e-17)
(4 4.13406919e-18 -1.456120187e-16)
(4 2.519343005e-16 1.2139953e-16)
(4 -5.817308453e-16 -3.35273083e-16)
(4 1.119289313e-15 1.041797134e-16)
(4 -7.27264174e-16 1.517868394e-16)
(4 6.88414319e-16 -1.072416392e-16)
(4 -1.097523965e-15 2.28812952e-16)
(4 6.836811166e-16 -1.476558177e-16)
(4 -6.668891082e-16 2.078645567e-16)
(4 9.071579869e-17 -7.961435015e-17)
(4 -1.663719765e-16 -1.192316812e-16)
(4 -1.779528682e-16 2.123939216e-16)
(4 -1.688727195e-16 -3.635060677e-16)
(4 1.056472868e-15 -2.434326893e-16)
(4 -1.042793096e-15 -4.462633518e-17)
(4 9.752295112e-16 -1.38157499e-17)
(4 -1.321583573e-15 2.913444472e-16)
(4 1.730908501e-15 -2.051429964e-16)
(4 -1.605834142e-15 -2.19786285e-16)
(4 8.753840529e-16 -9.612497228e-17)
(4 -6.76890021e-16 -1.082361428e-16)
(4 5.590111637e-16 4.491759577e-17)
(4 -1.268238485e-17 -1.605787082e-17)
(4 -1.277407908e-16 -1.344571852e-16)
(4 -2.166715915e-16 9.561100228e-17)
(4 1.153962787e-16 -1.786856458e-16)
(4 -1.574263872e-16 8.989735433e-17)
(4 -1.636426266e-16 1.497069718e-16)
(4 5.323263366e-16 1.092718827e-16)
(4 -7.978017484e-16 3.720661178e-16)
(4 3.976379531e-15 2.833736102e-15)
(4 5.283570314e-14 2.536461275e-14)
(4 4.797348889e-13 2.194588972e-13)
(4 4.072106883e-12 1.779927701e-12)
(4 3.211512802e-11 1.346735753e-11)
(4 2.354240376e-10 9.423629756e-11)
(4.000000002 1.595663724e-09 6.066546962e-10)
(4.000000012 9.949834105e-09 3.573070688e-09)
(4.000000069 5.679213432e-08 1.914933311e-08)
(4.000000376 2.953726509e-07 9.29503335e-08)
(4.000001868 1.394771447e-06 4.072444707e-07)
(4.000008453 5.966102582e-06 1.607325207e-06)
(4.000034798 2.309480426e-05 5.710761236e-06)
(4.000130312 8.09204099e-05 1.827094616e-05)
(4.000444352 0.0002569200413 5.269120939e-05)
(4.001382093 0.0007404363571 0.000137160037)
(4.003930102 0.001941161288 0.0003227676319)
(4.01024408 0.004640442105 0.0006876223664)
(4.02454695 0.0101407905 0.001327726676)
(4.054237908 0.02030971043 0.002325135664)
(4.110857803 0.03737225795 0.003692394242)
(4.210284545 0.0633398565 0.005309978807)
(4.371439391 0.09911074884 0.006891874293)
(4.613080866 0.1435076331 0.008017646334)
(4.948997606 0.1927052223 0.008245583561)
(5.382837403 0.2404855613 0.007276538204)
(5.904430853 0.2794696616 0.005097972315)
(6.489315974 0.3030160912 0.002032714045)
(7.102146688 0.3071012419 -0.001342527699)
(7.703188843 0.2914394805 -0.004378848927)
(8.255897224 0.2594185767 -0.006557103134)
(8.73322589 0.2169430238 -0.007625082092)
(9.120971075 0.1707109984 -0.007624060553)
(9.417683113 0.1265910378 -0.006814826002)
(9.631880083 0.08859342719 -0.005553353569)
(9.777959556 0.05859589744 -0.0041736239)
(9.872203039 0.03667670422 -0.002915034994)
(9.929796061 0.02175416846 -0.0019024718)
(9.963176941 0.01224272708 -0.001165042785)
(9.981549596 0.006545390043 -0.000671671913)
(9.991163814 0.003328415302 -0.0003655627203)
(9.995952666 0.00161173131 -0.0001882700917)
(9.998225766 0.0007440392366 -9.194218788e-05)
(9.999255098 0.0003278151737 -4.265468508e-05)
(9.999700255 0.0001379945341 -1.883075453e-05)
(9.99988431 5.555870508e-05 -7.923004412e-06)
(9.999957139 2.141638529e-05 -3.18168953e-06)
(9.999984746 7.911877394e-06 -1.221114816e-06)
(9.999994781 2.803994661e-06 -4.484745079e-07)
(9.999998282 9.542315688e-07 -1.578064451e-07)
(9.999999455 3.121146245e-07 -5.326177688e-08)
(9.999999834 9.820946023e-08 -1.726182543e-08)
(9.999999951 2.97547986e-08 -5.377670907e-09)
)
;

boundaryField
{
    left
    {
        type            dirichlet;
        value           uniform (4 0 0);
    }
    right
    {
        type            dirichlet;
        value           uniform (4 0 0);
    }
    sides
    {
        type            empty;
    }
}


// ************************************************************************* //
