/*--------------------------------*- C++ -*----------------------------------*\
| =========                 |                                                 |
| \\      /  F ield         | foam-extend: Open Source CFD                    |
|  \\    /   O peration     | Version:     4.1                                |
|   \\  /    A nd           | Web:         http://www.foam-extend.org         |
|    \\/     M anipulation  |                                                 |
\*---------------------------------------------------------------------------*/
FoamFile
{
    version     2.0;
    format      ascii;
    class       volScalarField;
    location    "0";
    object      fvC;
}
// * * * * * * * * * * * * * * * * * * * * * * * * * * * * * * * * * * * * * //

dimensions      [0 0 0 0 0 0 0];

internalField   nonuniform List<scalar> 
1225
(
-0.999999999964
-0.999999999888
-0.999999999668
-0.999999999052
-0.999999997409
-0.999999993244
-0.999999983278
-0.99999996087
-0.999999913838
-0.999999822313
-0.999999658454
-0.99999939097
-0.999998997115
-0.999998481365
-0.999997893212
-0.999997330661
-0.99999691833
-0.999996763062
-0.999996908076
-0.99999731296
-0.999997872399
-0.999998461561
-0.999998980978
-0.999999379395
-0.999999651018
-0.999999817981
-0.999999911527
-0.999999959732
-0.999999982756
-0.99999999302
-0.999999997318
-0.999999999017
-0.999999999655
-0.999999999884
-0.999999999962
-0.999999999888
-0.999999999644
-0.999999998903
-0.999999996752
-0.999999990784
-0.999999975055
-0.999999935882
-0.99999984424
-0.999999644198
-0.999999239759
-0.999998488724
-0.999997219983
-0.999995292517
-0.999992698093
-0.999989670398
-0.99998672197
-0.999984534026
-0.999983704897
-0.999984479356
-0.999986628478
-0.99998956215
-0.999992597222
-0.999995212414
-0.999997164212
-0.999998454066
-0.999999220281
-0.999999634192
-0.999999839499
-0.999999933793
-0.999999974193
-0.999999990449
-0.999999996629
-0.99999999886
-0.999999999629
-0.999999999884
-0.999999999669
-0.999999998905
-0.9999999965
-0.999999989231
-0.999999968231
-0.999999910536
-0.999999760648
-0.999999394778
-0.999998561637
-0.99999680585
-0.999993412216
-0.999987458448
-0.999978093981
-0.999965095425
-0.999949527663
-0.999934056702
-0.999922414497
-0.999917970841
-0.999922122013
-0.999933561859
-0.99994896462
-0.999964582953
-0.999977698593
-0.999987192177
-0.999993252724
-0.999996719679
-0.999998519159
-0.999999375486
-0.999999752505
-0.999999907318
-0.999999967032
-0.999999988807
-0.999999996357
-0.999999998859
-0.999999999655
-0.999999999056
-0.99999999676
-0.999999989246
-0.999999965583
-0.999999894259
-0.999999689537
-0.999999133331
-0.999997712571
-0.999994326407
-0.999986860937
-0.999971783802
-0.999944203354
-0.999899111126
-0.999834320429
-0.999754417177
-0.999673160271
-0.999611031025
-0.999587121968
-0.999609460492
-0.999670535501
-0.99975148939
-0.999831725783
-0.999897173332
-0.999942946093
-0.999971060887
-0.999986486957
-0.999994150171
-0.999997636111
-0.999999102506
-0.999999677894
-0.999999890109
-0.999999964179
-0.999999988792
-0.99999999662
-0.999999999014
-0.999999997422
-0.999999990821
-0.999999968321
-0.999999894415
-0.999999661591
-0.999998961971
-0.999996969073
-0.999991625756
-0.99997825009
-0.999947277806
-0.99988163727
-0.999755867555
-0.99954115154
-0.999220406368
-0.998811513529
-0.998384670133
-0.998052335173
-0.997923243708
-0.99804387495
-0.998370727076
-0.998796308624
-0.999207333756
-0.999531740698
-0.999750011866
-0.999878420131
-0.999945691371
-0.999977538367
-0.999991331888
-0.999996856274
-0.999998921368
-0.99999964778
-0.999999889946
-0.999999966938
-0.99999999041
-0.999999997304
-0.99999999329
-0.999999975195
-0.99999991093
-0.999999690487
-0.999998963628
-0.999996672528
-0.999989812919
-0.999970448851
-0.999919350641
-0.999794553434
-0.999515699278
-0.998953280427
-0.997945684521
-0.996373705467
-0.994294290642
-0.992059846107
-0.990285265588
-0.98958893197
-0.990239744003
-0.991985957092
-0.994215697521
-0.996308373527
-0.997900546202
-0.998926476904
-0.999501700016
-0.999788005301
-0.999916566445
-0.99996935908
-0.999989415984
-0.999996536731
-0.999998919641
-0.999999676904
-0.999999906907
-0.999999974047
-0.999999992973
-0.999999983417
-0.999999936347
-0.999999762098
-0.999999137448
-0.999996979117
-0.99998983059
-0.999967282441
-0.999900065722
-0.999712396101
-0.999226857989
-0.998077486859
-0.995625426465
-0.990996138948
-0.983433478694
-0.973049782398
-0.961586635517
-0.952328606379
-0.948667232641
-0.952089696151
-0.961203525325
-0.97265117741
-0.983112831348
-0.990783871189
-0.995505578653
-0.998018262745
-0.999200711733
-0.999701908568
-0.999896189936
-0.999965947235
-0.999989397565
-0.999996845807
-0.999999098215
-0.999999750995
-0.999999933309
-0.999999982611
-0.999999961261
-0.999999845634
-0.999999399504
-0.999997727553
-0.999991668937
-0.999970555589
-0.99990025551
-0.999678344556
-0.999020509969
-0.997210288284
-0.99265256776
-0.982343219006
-0.961871392724
-0.927183342912
-0.8787032502
-0.825224315388
-0.782535225736
-0.765830221503
-0.781441855944
-0.823446678553
-0.876837889432
-0.925694791896
-0.960913594605
-0.981826518566
-0.992411228793
-0.997110087689
-0.998982752719
-0.999665219751
-0.999895992084
-0.999969247829
-0.999991286893
-0.999997620504
-0.999999370564
-0.999999838048
-0.999999959325
-0.999999914845
-0.999999648012
-0.999998575514
-0.999994374377
-0.999978405044
-0.999919805186
-0.999713537382
-0.999022564149
-0.996841745746
-0.990442848811
-0.973312154282
-0.932596457135
-0.849939540671
-0.713248534007
-0.537003196542
-0.364902495281
-0.243379893999
-0.199339145105
-0.240439213492
-0.359571911172
-0.530607668044
-0.70755871741
-0.846081579166
-0.930522536641
-0.972382034504
-0.990078652265
-0.996713066834
-0.998980610979
-0.999700718901
-0.999916092768
-0.999977376946
-0.999994100216
-0.999998504713
-0.999999630223
-0.99999991048
-0.999999824702
-0.999999249309
-0.999996842809
-0.999986998394
-0.999947763617
-0.999796157276
-0.999231660073
-0.997222555157
-0.990465141326
-0.96937303207
-0.910202981712
-0.769314361843
-0.50815916403
-0.161893962446
0.160102400734
0.383092194284
0.503519919487
0.541359039853
0.506134066797
0.38892992948
0.169763408749
-0.149551783277
-0.496955001662
-0.762296796136
-0.906953459823
-0.968143031724
-0.990055412965
-0.997097300222
-0.999195707287
-0.999786334505
-0.999945185486
-0.99998634388
-0.999996681224
-0.999999210349
-0.999999815496
-0.999999663665
-0.999998510578
-0.999993501594
-0.999972138195
-0.999882988775
-0.999520598944
-0.998094065627
-0.992703229565
-0.973442341344
-0.910430642143
-0.734734135813
-0.370204908325
0.110654758726
0.499584011203
0.721616272118
0.828692994814
0.875173290845
0.888381835591
0.87610630372
0.831111547792
0.726913344201
0.510040530857
0.126862393024
-0.354213329977
-0.725394835264
-0.906716843219
-0.972246430399
-0.992358441733
-0.998000993156
-0.999496598418
-0.999877013592
-0.999970692235
-0.999993159792
-0.999998431352
-0.999999645604
-0.999999401384
-0.999997265589
-0.999987654375
-0.999945025483
-0.999759217134
-0.998966418885
-0.995674370847
-0.982512023126
-0.933104960533
-0.770464882876
-0.371526090099
0.201137444698
0.635369657108
0.844242107443
0.927985411925
0.960750009109
0.973389900314
0.97678962314
0.973632973705
0.961432470008
0.929721181256
0.848689654578
0.646043070883
0.220248870356
-0.352869331155
-0.761107942297
-0.929993924825
-0.981650795667
-0.995454631752
-0.998912806944
-0.999746528563
-0.99994209157
-0.999986988625
-0.999997116852
-0.999999368584
-0.99999901613
-0.999995379027
-0.99997848209
-0.999900822623
-0.999548537938
-0.997976676186
-0.991121037228
-0.962341133718
-0.851455957278
-0.511483193919
0.107410476599
0.634290381833
0.8732895507
0.955173356822
0.982032452882
0.991253368049
0.994510309303
0.995346093266
0.994570710616
0.991434429848
0.98254334861
0.956696079117
0.87795474741
0.647098472925
0.130100684878
-0.493556543938
-0.844511263416
-0.960425375768
-0.990654001776
-0.997868332595
-0.999524066994
-0.999895396168
-0.999977295783
-0.999995122666
-0.99999896126
-0.999998512986
-0.999992846734
-0.999965787515
-0.999837505211
-0.999234844137
-0.996437827686
-0.983708826387
-0.928279735042
-0.71675357203
-0.168038309963
0.495630563628
0.843113568988
0.954979748025
0.986335650906
0.995266712852
0.997989230522
0.998862242526
0.99907379364
0.998877737005
0.998039411814
0.995424308168
0.986867918451
0.956883185523
0.84978501934
0.513929205116
-0.143354774958
-0.703951024045
-0.924558013642
-0.982826945752
-0.99624180798
-0.999192352805
-0.999828422785
-0.999963865497
-0.999992443196
-0.999998428807
-0.999997940961
-0.999989900957
-0.999950634447
-0.999759691718
-0.998836410303
-0.994410089937
-0.973571867131
-0.880843878307
-0.543330242094
0.152038619939
0.71804265111
0.92710367248
0.981859241293
0.995239991103
0.998601724918
0.999502566975
0.999758606468
0.999815943129
0.999762885687
0.999517929542
0.99865651501
0.995450123388
0.982710769886
0.930575367405
0.730402633849
0.177800067641
-0.524143565319
-0.874625439923
-0.972110133026
-0.994095675304
-0.998770513365
-0.999746026831
-0.999947818841
-0.999989323553
-0.999997823001
-0.999997395973
-0.999987043881
-0.999935638617
-0.999680904448
-0.998422373581
-0.992241464934
-0.96243435948
-0.828727600369
-0.374163129914
0.374289370046
0.825630267306
0.960056940089
0.991115369065
0.997963728061
0.999498663637
0.999857702051
0.99994576839
0.999963434115
0.999947123076
0.999863281199
0.999521708164
0.998064095762
0.991568052935
0.962104460848
0.834095531585
0.397639359012
-0.3501761294
-0.819838671933
-0.960326975927
-0.991798067359
-0.99833173054
-0.999662528384
-0.999931926754
-0.999986295838
-0.999997245488
-0.999996999102
-0.999984937728
-0.999924430124
-0.999621080098
-0.998102298841
-0.990531692876
-0.953504829169
-0.787391553981
-0.255085031937
0.49430886709
0.872338770487
0.972773534412
0.994387738884
0.998838660233
0.999754265334
0.999945081709
0.99998552655
0.999992735423
0.999986094037
0.999947791167
0.999767103714
0.998900642629
0.994689770199
0.974232095352
0.878870231136
0.515221461047
-0.228620107581
-0.776457037231
-0.950876461833
-0.989985352586
-0.997992299369
-0.999599089333
-0.999920042216
-0.99998406288
-0.999996824762
-0.999996853287
-0.999984159087
-0.999920257065
-0.999598626913
-0.99798106346
-0.989877598837
-0.950061962104
-0.771610007625
-0.212867125047
0.531296181837
0.885367086293
0.976132681467
0.99521313761
0.999047294145
0.99981067901
0.999962389784
0.999992528867
0.999998515904
0.999992939765
0.999964458245
0.999821090409
0.999099667751
0.995475811318
0.977430530145
0.891329136643
0.55129069685
-0.185708206182
-0.759913532499
-0.947232291791
-0.989291637984
-0.997863688591
-0.999575272304
-0.99991561629
-0.999983237167
-0.999996670152
-0.999996999102
-0.999984937728
-0.999924430124
-0.999621080098
-0.998102298841
-0.990531692876
-0.953504829169
-0.787391553981
-0.255085031937
0.49430886709
0.872338770487
0.972773534412
0.994387738884
0.998838660233
0.999754265334
0.999945081709
0.99998552655
0.999992735423
0.999986094037
0.999947791167
0.999767103714
0.998900642629
0.994689770199
0.974232095352
0.878870231136
0.515221461047
-0.228620107581
-0.776457037231
-0.950876461833
-0.989985352586
-0.997992299369
-0.999599089333
-0.999920042216
-0.99998406288
-0.999996824762
-0.999997395973
-0.999987043881
-0.999935638617
-0.999680904448
-0.998422373581
-0.992241464934
-0.96243435948
-0.828727600369
-0.374163129914
0.374289370046
0.825630267306
0.960056940089
0.991115369065
0.997963728061
0.999498663637
0.999857702051
0.99994576839
0.999963434115
0.999947123076
0.999863281199
0.999521708164
0.998064095762
0.991568052935
0.962104460848
0.834095531585
0.397639359012
-0.3501761294
-0.819838671933
-0.960326975927
-0.991798067359
-0.99833173054
-0.999662528384
-0.999931926754
-0.999986295838
-0.999997245488
-0.999997940961
-0.999989900957
-0.999950634447
-0.999759691718
-0.998836410303
-0.994410089937
-0.973571867131
-0.880843878307
-0.543330242094
0.152038619939
0.71804265111
0.92710367248
0.981859241293
0.995239991103
0.998601724918
0.999502566975
0.999758606468
0.999815943129
0.999762885687
0.999517929542
0.99865651501
0.995450123388
0.982710769886
0.930575367405
0.730402633849
0.177800067641
-0.524143565319
-0.874625439923
-0.972110133026
-0.994095675304
-0.998770513365
-0.999746026831
-0.999947818841
-0.999989323553
-0.999997823001
-0.999998512986
-0.999992846734
-0.999965787515
-0.999837505211
-0.999234844137
-0.996437827686
-0.983708826387
-0.928279735042
-0.71675357203
-0.168038309963
0.495630563628
0.843113568988
0.954979748025
0.986335650906
0.995266712852
0.997989230522
0.998862242526
0.99907379364
0.998877737005
0.998039411814
0.995424308168
0.986867918451
0.956883185523
0.84978501934
0.513929205116
-0.143354774958
-0.703951024045
-0.924558013642
-0.982826945752
-0.99624180798
-0.999192352805
-0.999828422785
-0.999963865497
-0.999992443196
-0.999998428807
-0.99999901613
-0.999995379027
-0.99997848209
-0.999900822623
-0.999548537938
-0.997976676186
-0.991121037228
-0.962341133718
-0.851455957278
-0.511483193919
0.107410476599
0.634290381833
0.8732895507
0.955173356822
0.982032452882
0.991253368049
0.994510309303
0.995346093266
0.994570710616
0.991434429848
0.98254334861
0.956696079117
0.87795474741
0.647098472925
0.130100684878
-0.493556543938
-0.844511263416
-0.960425375768
-0.990654001776
-0.997868332595
-0.999524066994
-0.999895396168
-0.999977295783
-0.999995122666
-0.99999896126
-0.999999401384
-0.999997265589
-0.999987654375
-0.999945025483
-0.999759217134
-0.998966418885
-0.995674370847
-0.982512023126
-0.933104960533
-0.770464882876
-0.371526090099
0.201137444698
0.635369657108
0.844242107443
0.927985411925
0.960750009109
0.973389900314
0.97678962314
0.973632973705
0.961432470008
0.929721181256
0.848689654578
0.646043070883
0.220248870356
-0.352869331155
-0.761107942297
-0.929993924825
-0.981650795667
-0.995454631752
-0.998912806944
-0.999746528563
-0.99994209157
-0.999986988625
-0.999997116852
-0.999999368584
-0.999999663665
-0.999998510578
-0.999993501594
-0.999972138195
-0.999882988775
-0.999520598944
-0.998094065627
-0.992703229565
-0.973442341344
-0.910430642143
-0.734734135813
-0.370204908325
0.110654758726
0.499584011203
0.721616272118
0.828692994814
0.875173290845
0.888381835591
0.87610630372
0.831111547792
0.726913344201
0.510040530857
0.126862393024
-0.354213329977
-0.725394835264
-0.906716843219
-0.972246430399
-0.992358441733
-0.998000993156
-0.999496598418
-0.999877013592
-0.999970692235
-0.999993159792
-0.999998431352
-0.999999645604
-0.999999824702
-0.999999249309
-0.999996842809
-0.999986998394
-0.999947763617
-0.999796157276
-0.999231660073
-0.997222555157
-0.990465141326
-0.96937303207
-0.910202981712
-0.769314361843
-0.50815916403
-0.161893962446
0.160102400734
0.383092194284
0.503519919487
0.541359039853
0.506134066797
0.38892992948
0.169763408749
-0.149551783277
-0.496955001662
-0.762296796136
-0.906953459823
-0.968143031724
-0.990055412965
-0.997097300222
-0.999195707287
-0.999786334505
-0.999945185486
-0.99998634388
-0.999996681224
-0.999999210349
-0.999999815496
-0.999999914845
-0.999999648012
-0.999998575514
-0.999994374377
-0.999978405044
-0.999919805186
-0.999713537382
-0.999022564149
-0.996841745746
-0.990442848811
-0.973312154282
-0.932596457135
-0.849939540671
-0.713248534007
-0.537003196542
-0.364902495281
-0.243379893999
-0.199339145105
-0.240439213492
-0.359571911172
-0.530607668044
-0.70755871741
-0.846081579166
-0.930522536641
-0.972382034504
-0.990078652265
-0.996713066834
-0.998980610979
-0.999700718901
-0.999916092768
-0.999977376946
-0.999994100216
-0.999998504713
-0.999999630223
-0.99999991048
-0.999999961261
-0.999999845634
-0.999999399504
-0.999997727553
-0.999991668937
-0.999970555589
-0.99990025551
-0.999678344556
-0.999020509969
-0.997210288284
-0.99265256776
-0.982343219006
-0.961871392724
-0.927183342912
-0.8787032502
-0.825224315388
-0.782535225736
-0.765830221503
-0.781441855944
-0.823446678553
-0.876837889432
-0.925694791896
-0.960913594605
-0.981826518566
-0.992411228793
-0.997110087689
-0.998982752719
-0.999665219751
-0.999895992084
-0.999969247829
-0.999991286893
-0.999997620504
-0.999999370564
-0.999999838048
-0.999999959325
-0.999999983417
-0.999999936347
-0.999999762098
-0.999999137448
-0.999996979117
-0.99998983059
-0.999967282441
-0.999900065722
-0.999712396101
-0.999226857989
-0.998077486859
-0.995625426465
-0.990996138948
-0.983433478694
-0.973049782398
-0.961586635517
-0.952328606379
-0.948667232641
-0.952089696151
-0.961203525325
-0.97265117741
-0.983112831348
-0.990783871189
-0.995505578653
-0.998018262745
-0.999200711733
-0.999701908568
-0.999896189936
-0.999965947235
-0.999989397565
-0.999996845807
-0.999999098215
-0.999999750995
-0.999999933309
-0.999999982611
-0.99999999329
-0.999999975195
-0.99999991093
-0.999999690487
-0.999998963628
-0.999996672528
-0.999989812919
-0.999970448851
-0.999919350641
-0.999794553434
-0.999515699278
-0.998953280427
-0.997945684521
-0.996373705467
-0.994294290642
-0.992059846107
-0.990285265588
-0.98958893197
-0.990239744003
-0.991985957092
-0.994215697521
-0.996308373527
-0.997900546202
-0.998926476904
-0.999501700016
-0.999788005301
-0.999916566445
-0.99996935908
-0.999989415984
-0.999996536731
-0.999998919641
-0.999999676904
-0.999999906907
-0.999999974047
-0.999999992973
-0.999999997422
-0.999999990821
-0.999999968321
-0.999999894415
-0.999999661591
-0.999998961971
-0.999996969073
-0.999991625756
-0.99997825009
-0.999947277806
-0.99988163727
-0.999755867555
-0.99954115154
-0.999220406368
-0.998811513529
-0.998384670133
-0.998052335173
-0.997923243708
-0.99804387495
-0.998370727076
-0.998796308624
-0.999207333756
-0.999531740698
-0.999750011866
-0.999878420131
-0.999945691371
-0.999977538367
-0.999991331888
-0.999996856274
-0.999998921368
-0.99999964778
-0.999999889946
-0.999999966938
-0.99999999041
-0.999999997304
-0.999999999056
-0.99999999676
-0.999999989246
-0.999999965583
-0.999999894259
-0.999999689537
-0.999999133331
-0.999997712571
-0.999994326407
-0.999986860937
-0.999971783802
-0.999944203354
-0.999899111126
-0.999834320429
-0.999754417177
-0.999673160271
-0.999611031025
-0.999587121968
-0.999609460492
-0.999670535501
-0.99975148939
-0.999831725783
-0.999897173332
-0.999942946093
-0.999971060887
-0.999986486957
-0.999994150171
-0.999997636111
-0.999999102506
-0.999999677894
-0.999999890109
-0.999999964179
-0.999999988792
-0.99999999662
-0.999999999014
-0.999999999669
-0.999999998905
-0.9999999965
-0.999999989231
-0.999999968231
-0.999999910536
-0.999999760648
-0.999999394778
-0.999998561637
-0.99999680585
-0.999993412216
-0.999987458448
-0.999978093981
-0.999965095425
-0.999949527663
-0.999934056702
-0.999922414497
-0.999917970841
-0.999922122013
-0.999933561859
-0.99994896462
-0.999964582953
-0.999977698593
-0.999987192177
-0.999993252724
-0.999996719679
-0.999998519159
-0.999999375486
-0.999999752505
-0.999999907318
-0.999999967032
-0.999999988807
-0.999999996357
-0.999999998859
-0.999999999655
-0.999999999888
-0.999999999644
-0.999999998903
-0.999999996752
-0.999999990784
-0.999999975055
-0.999999935882
-0.99999984424
-0.999999644198
-0.999999239759
-0.999998488724
-0.999997219983
-0.999995292517
-0.999992698093
-0.999989670398
-0.99998672197
-0.999984534026
-0.999983704897
-0.999984479356
-0.999986628478
-0.99998956215
-0.999992597222
-0.999995212414
-0.999997164212
-0.999998454066
-0.999999220281
-0.999999634192
-0.999999839499
-0.999999933793
-0.999999974193
-0.999999990449
-0.999999996629
-0.99999999886
-0.999999999629
-0.999999999884
-0.999999999964
-0.999999999888
-0.999999999668
-0.999999999052
-0.999999997409
-0.999999993244
-0.999999983278
-0.99999996087
-0.999999913838
-0.999999822313
-0.999999658454
-0.99999939097
-0.999998997115
-0.999998481365
-0.999997893212
-0.999997330661
-0.99999691833
-0.999996763062
-0.999996908076
-0.99999731296
-0.999997872399
-0.999998461561
-0.999998980978
-0.999999379395
-0.999999651018
-0.999999817981
-0.999999911527
-0.999999959732
-0.999999982756
-0.99999999302
-0.999999997318
-0.999999999017
-0.999999999655
-0.999999999884
-0.999999999962
)
;

boundaryField
{
}


// ************************************************************************* //
