/*--------------------------------*- C++ -*----------------------------------*\
| =========                 |                                                 |
| \\      /  F ield         | foam-extend: Open Source CFD                    |
|  \\    /   O peration     | Version:     4.1                                |
|   \\  /    A nd           | Web:         http://www.foam-extend.org         |
|    \\/     M anipulation  |                                                 |
\*---------------------------------------------------------------------------*/
FoamFile
{
    version     2.0;
    format      ascii;
    class       cellScalarField;
    location    "49.2";
    object      T;
}
// * * * * * * * * * * * * * * * * * * * * * * * * * * * * * * * * * * * * * //

dimensions      [0 0 0 0 1 0 0];

internalField   nonuniform 
100
(
(4 -5.703630593e-17 1.624202108e-17)
(4 -8.537838339e-17 8.416705787e-17)
(4 2.480141263e-16 -6.700209557e-17)
(4 -1.208282892e-16 1.032653345e-16)
(4 -2.852230341e-17 7.310024062e-17)
(4 -4.792664331e-16 -1.329327044e-16)
(4 5.000191346e-16 -1.608083111e-16)
(4 -3.047250063e-16 1.957673574e-17)
(4 6.5767395e-16 2.017209682e-16)
(4 -1.292003204e-15 4.872569709e-17)
(4 4.199010844e-17 1.341618536e-16)
(4 2.257681781e-16 -2.046824605e-16)
(4 8.77540075e-16 -1.123432768e-16)
(4 -7.826271816e-17 4.286955895e-17)
(4 -5.59196041e-17 1.833680763e-16)
(4 2.019622302e-16 -5.349246965e-17)
(4 -1.319876679e-16 -2.462544347e-18)
(4 1.037237758e-16 5.247750625e-17)
(4 -1.377930634e-17 -1.293052907e-16)
(4 2.700136952e-17 2.308085383e-16)
(4 -7.458405793e-17 -9.933824095e-19)
(4 4.635073457e-17 -1.220267194e-16)
(4 3.028318465e-17 -5.960592418e-17)
(4 2.230349905e-17 4.055872521e-17)
(4 -1.135652558e-16 2.741278471e-16)
(4 -1.249006076e-16 -1.073288381e-17)
(4 2.56145828e-16 -1.213837184e-16)
(4 -6.766490387e-17 7.499930704e-17)
(4 -3.970910838e-16 2.524125552e-17)
(4 4.187737803e-16 2.027893698e-16)
(4 -3.177987751e-17 5.593320711e-17)
(4 -7.577271597e-17 5.546887983e-17)
(4 2.66267614e-17 7.820632093e-17)
(4 -3.900080836e-16 1.232837784e-16)
(4 3.4148972e-16 7.668306444e-17)
(4 -4.665714744e-16 2.770648453e-16)
(4 8.847233126e-16 -8.478062898e-17)
(4 -8.742431679e-16 9.062334579e-17)
(4 4.309468222e-16 -4.000889632e-17)
(4 -2.256604435e-16 -1.960281448e-18)
(4 -2.019722929e-16 3.19256133e-18)
(4 -1.074736568e-16 -2.438527097e-16)
(4 1.87228585e-16 -1.655553318e-16)
(4 -1.607771793e-16 1.967780535e-17)
(4 -4.590522012e-16 -1.316567577e-16)
(4 9.848257852e-16 -1.87337609e-16)
(4 -9.456956044e-16 -2.008777661e-17)
(4 9.036142664e-16 8.421311662e-17)
(4 -7.620954071e-16 1.847985481e-17)
(4 4.739657451e-16 1.026613313e-18)
(4 -2.550482647e-18 -5.954222349e-17)
(4 -5.762721133e-17 1.35574099e-16)
(4 1.489412806e-17 1.172971365e-17)
(4 -2.378154103e-17 -4.970727325e-18)
(4 -5.898268155e-18 9.973253187e-17)
(4 -1.504488379e-16 2.465648075e-16)
(4 -5.612647987e-17 -8.21815402e-17)
(4 3.311093683e-17 2.14216838e-16)
(4 7.89163396e-17 -1.394102776e-17)
(4 -1.005702838e-16 -1.412727566e-17)
(4 4.057905166e-17 -6.218703797e-17)
(4 -1.548665716e-16 8.529849652e-18)
(4 3.395641194e-17 -2.283599271e-17)
(4 -1.344865308e-16 -5.066365605e-17)
(4 -2.115836374e-16 -1.043848374e-16)
(4 9.92226207e-16 5.530216639e-16)
(4 4.650959643e-15 2.268316797e-15)
(4 4.407907056e-14 1.852029388e-14)
(4 3.18202622e-13 1.266656094e-13)
(4 2.161747168e-12 8.294776875e-13)
(4 1.381584279e-11 5.088093461e-12)
(4 8.269705997e-11 2.911402651e-11)
(4.000000001 4.624992978e-10 1.551623619e-10)
(4.000000003 2.411099898e-09 7.682007128e-10)
(4.000000015 1.169253878e-08 3.525964799e-09)
(4.000000073 5.266192961e-08 1.498054495e-08)
(4.000000317 2.200458141e-07 5.885697312e-08)
(4.000001288 8.525542937e-07 2.137411034e-07)
(4.000004868 3.062667886e-06 7.174522517e-07)
(4.000017113 1.020483219e-05 2.226716378e-06)
(4.000056011 3.156077842e-05 6.393993608e-06)
(4.000170848 9.068757874e-05 1.700046541e-05)
(4.000486274 0.0002423888017 4.189082563e-05)
(4.001293321 0.0006034015673 9.575147234e-05)
(4.003219333 0.00140097752 0.0002031988871)
(4.007512475 0.003038151423 0.0004006649715)
(4.016463218 0.006162720951 0.0007344878063)
(4.033942596 0.01170985103 0.001252213805)
(4.065960094 0.02087229041 0.001985417923)
(4.12104672 0.03494954208 0.002925947777)
(4.210190866 0.05505084573 0.004002663115)
(4.346054548 0.08168079858 0.005070016256)
(4.541325624 0.1143074746 0.005919847318)
(4.806322011 0.1510690816 0.006321364642)
(5.146288558 0.1887786659 0.006082593142)
(5.559085653 0.2233157675 0.005114585278)
(6.03402155 0.2503635048 0.003474056282)
(6.552354923 0.2663101168 0.001365210423)
(7.08953744 0.2690504374 -0.0009037123407)
(7.618739205 0.2584394414 -0.002995790851)
)
;

boundaryField
{
    left
    {
        type            dirichlet;
        value           uniform (4 0 0);
    }
    right
    {
        type            dirichlet;
        value           uniform (4 0 0);
    }
    sides
    {
        type            empty;
    }
}


// ************************************************************************* //
