/*--------------------------------*- C++ -*----------------------------------*\
| =========                 |                                                 |
| \\      /  F ield         | foam-extend: Open Source CFD                    |
|  \\    /   O peration     | Version:     4.1                                |
|   \\  /    A nd           | Web:         http://www.foam-extend.org         |
|    \\/     M anipulation  |                                                 |
\*---------------------------------------------------------------------------*/
FoamFile
{
    version     2.0;
    format      ascii;
    class       cellScalarField;
    location    "4.1";
    object      T;
}
// * * * * * * * * * * * * * * * * * * * * * * * * * * * * * * * * * * * * * //

dimensions      [0 0 0 0 1 0 0];

internalField   nonuniform 10((4.000000005 1.660375479e-08 1.221890253e-08) (3.999999992 -4.305899822e-07 -2.764587156e-07) (4.000008035 1.956519882e-05 1.731325508e-05) (4.00022752 0.0001710437638 1.795993863e-05) (4.002841801 0.003945461035 0.004133426262) (4.070991744 0.0864922677 0.03664781615) (4.545804342 0.4284867363 0.07920890021) (5.853633369 0.8549862737 0.03769103199) (7.645916205 0.865272622 -0.04609051606) (9.040077405 0.508013594 -0.06347205584));

boundaryField
{
    left
    {
        type            dirichlet;
        value           uniform (4 0 0);
    }
    right
    {
        type            dirichlet;
        value           uniform (4 0 0);
    }
    sides
    {
        type            empty;
    }
}


// ************************************************************************* //
