/*--------------------------------*- C++ -*----------------------------------*\
| =========                 |                                                 |
| \\      /  F ield         | foam-extend: Open Source CFD                    |
|  \\    /   O peration     | Version:     4.1                                |
|   \\  /    A nd           | Web:         http://www.foam-extend.org         |
|    \\/     M anipulation  |                                                 |
\*---------------------------------------------------------------------------*/
FoamFile
{
    version     2.0;
    format      ascii;
    class       cellScalarField;
    location    "15.2";
    object      T;
}
// * * * * * * * * * * * * * * * * * * * * * * * * * * * * * * * * * * * * * //

dimensions      [0 0 0 0 1 0 0];

internalField   nonuniform 
100
(
(4 -5.703630593e-17 1.624202108e-17)
(4 -2.386669523e-16 -7.489080745e-17)
(4 -2.044843813e-16 4.965197989e-17)
(4 6.229816937e-17 -1.377148404e-16)
(4 -1.908254866e-17 -3.421143822e-17)
(4 -3.229519461e-16 1.609494269e-16)
(4 3.540499836e-16 -1.663160588e-16)
(4 -2.645392447e-16 1.571735547e-16)
(4 5.308789715e-16 2.252540653e-16)
(4 -1.354760135e-15 -1.312693751e-16)
(4 4.673548632e-17 -4.652974319e-18)
(4 1.363400453e-15 -2.338259202e-16)
(4 1.721126958e-14 1.410844732e-14)
(4 3.591431049e-13 2.085744561e-13)
(4 6.317273445e-12 4.330561874e-12)
(4 1.189634929e-10 7.153564686e-11)
(4.000000002 1.731398544e-09 9.997410153e-10)
(4.000000021 2.393414006e-08 1.352006379e-08)
(4.000000271 2.944803406e-07 1.522448955e-07)
(4.000002954 3.062199535e-06 1.48013754e-06)
(4.000028157 2.811610909e-05 1.262924873e-05)
(4.000232532 0.0002191858328 8.643442344e-05)
(4.001573919 0.001347929924 0.0004443183155)
(4.008411093 0.00633479762 0.001692932174)
(4.035307546 0.02281886287 0.004824446294)
(4.117891579 0.06402888438 0.01040045126)
(4.319091551 0.1425955254 0.01702681486)
(4.714564677 0.2565319247 0.02086915396)
(5.351338714 0.3787012285 0.01795697459)
(6.202730335 0.4651146583 0.007873140641)
(7.159439694 0.4810764772 -0.005122621031)
(8.072726388 0.4236097294 -0.01513304812)
(8.820587796 0.3206699913 -0.01880033105)
(9.350567189 0.2105519517 -0.0167651521)
(9.678249201 0.1209011197 -0.01196063802)
(9.856356352 0.06117557438 -0.007140443558)
(9.942062434 0.02747211756 -0.003657929631)
(9.978818247 0.01102232144 -0.001635158956)
(9.992954829 0.003976053878 -0.0006458366138)
(9.997859831 0.001297198492 -0.0002276533925)
(9.999403826 0.0003849179648 -7.222332014e-05)
(9.999847098 0.0001044320556 -2.077386268e-05)
(9.999963752 2.603572647e-05 -5.45282984e-06)
(9.999992026 5.992629973e-06 -1.313831379e-06)
(9.999998366 1.279083835e-06 -2.921379859e-07)
(9.999999687 2.54226763e-07 -6.024056043e-08)
(9.999999944 4.723685899e-08 -1.157161058e-08)
(9.99999999 8.235119737e-09 -2.07922686e-09)
(9.999999998 1.351698973e-09 -3.508141506e-10)
(10 2.095615488e-10 -5.577895594e-11)
(10 3.077909338e-11 -8.383522126e-12)
(10 4.295651064e-12 -1.196176964e-12)
(10 5.698725251e-13 -1.611718123e-13)
(10 7.127231252e-14 -2.079643988e-14)
(10 6.772023644e-15 -1.951229334e-15)
(10 -5.054566415e-16 8.49612837e-16)
(10 -4.859276546e-16 4.827707717e-16)
(10 -4.276419558e-17 -1.84850419e-16)
(10 -1.67311e-16 6.257431267e-17)
(10 7.349751049e-17 1.458179408e-16)
(10 -5.503638268e-17 2.37446109e-16)
(10 -1.194904882e-16 3.024429285e-16)
(10 5.592313957e-16 5.327716315e-17)
(10 4.732793596e-16 8.793088092e-17)
(10 2.806585748e-16 4.641277973e-16)
(10 -3.966957769e-16 -4.713758566e-16)
(10 4.718150659e-16 -4.514680011e-16)
(10 -3.720458332e-17 -1.396836942e-16)
(10 2.180388644e-16 9.188615675e-17)
(10 2.972644411e-16 2.36915617e-16)
(10 -1.583114361e-16 2.506380017e-16)
(10 -2.722467658e-16 5.127656409e-17)
(10 -1.724196352e-16 1.588918365e-16)
(10 3.385302032e-16 -3.871110588e-16)
(10 1.643333416e-16 -6.086092576e-16)
(10 3.19564656e-16 2.520084273e-16)
(10 -7.83274203e-16 3.965973958e-17)
(10 3.06964004e-16 -4.965799384e-16)
(10 -4.572305156e-16 2.315065689e-17)
(10 1.371451885e-16 4.850483985e-17)
(10 2.632144379e-16 -2.033380764e-17)
(10 1.731751135e-16 -4.447767659e-16)
(10 2.339755812e-16 4.92003042e-16)
(10 -3.920054925e-16 2.07896225e-16)
(10 -2.737081222e-17 5.984072151e-16)
(10 -1.11665216e-16 7.149234653e-16)
(10 -1.67897436e-16 4.388363427e-17)
(10 4.906843852e-16 -4.583167397e-17)
(10 2.632826371e-16 4.627279244e-16)
(10 1.114423185e-16 3.405063995e-16)
(10 4.36658622e-17 1.816260585e-16)
(10 -1.67735704e-16 6.845635988e-16)
(10 -4.947639965e-16 -1.480878264e-16)
(10 2.265680029e-16 -4.074140684e-17)
(10 -3.466744577e-16 3.86060923e-16)
(10 -1.658741745e-17 5.954211632e-16)
(10 -3.895059785e-16 1.01820709e-16)
(10 3.332939792e-16 -8.105828794e-17)
(10 -2.873223048e-16 -7.374468149e-16)
(10 -3.108234986e-16 3.61088538e-15)
)
;

boundaryField
{
    left
    {
        type            dirichlet;
        value           uniform (4 0 0);
    }
    right
    {
        type            dirichlet;
        value           uniform (4 0 0);
    }
    sides
    {
        type            empty;
    }
}


// ************************************************************************* //
