/*--------------------------------*- C++ -*----------------------------------*\
| =========                 |                                                 |
| \\      /  F ield         | foam-extend: Open Source CFD                    |
|  \\    /   O peration     | Version:     4.1                                |
|   \\  /    A nd           | Web:         http://www.foam-extend.org         |
|    \\/     M anipulation  |                                                 |
\*---------------------------------------------------------------------------*/
FoamFile
{
    version     2.0;
    format      ascii;
    class       cellScalarField;
    location    "24";
    object      T;
}
// * * * * * * * * * * * * * * * * * * * * * * * * * * * * * * * * * * * * * //

dimensions      [0 0 0 0 1 0 0];

internalField   nonuniform 
100
(
(4 -5.703630593e-17 1.624202108e-17)
(4 6.062071213e-17 1.593459519e-16)
(4 -3.011460331e-16 -1.275337816e-17)
(4 -5.095807928e-17 2.077351626e-16)
(4 1.224583843e-17 -2.864513195e-17)
(4 -2.468735335e-16 7.977408907e-18)
(4 3.175424848e-16 7.55770333e-17)
(4 -3.785516809e-16 -2.761977196e-17)
(4 6.095522199e-16 8.278526116e-17)
(4 -1.309179495e-15 -1.114579369e-16)
(4 4.382551884e-16 -6.330718824e-17)
(4 8.302025148e-16 5.943635102e-17)
(4 -9.355356249e-16 1.553585599e-16)
(4 3.450294099e-16 -6.160586162e-17)
(4 3.175512705e-17 -2.314532016e-17)
(4 -1.816763985e-16 -6.311572592e-16)
(4 6.586312385e-16 9.926424506e-17)
(4 -1.180159373e-15 -3.762900028e-17)
(4 1.23188963e-15 2.110928928e-16)
(4 -1.099811239e-15 -3.930116393e-18)
(4 9.828736608e-16 -1.26464707e-16)
(4 -8.72958257e-16 1.957882545e-16)
(4 7.974741393e-16 -1.468088954e-16)
(4 -8.831775075e-16 1.65069365e-16)
(4 8.739955849e-16 2.105266716e-17)
(4 5.53974562e-15 2.19210086e-15)
(4 6.728912779e-14 3.695805066e-14)
(4 8.738393421e-13 4.829416798e-13)
(4 1.070644022e-11 5.668225227e-12)
(4 1.203585615e-10 6.118125831e-11)
(4.000000001 1.242018577e-09 6.024290414e-10)
(4.000000012 1.165276178e-08 5.35200942e-09)
(4.000000102 9.859832235e-08 4.260218928e-08)
(4.000000802 7.464961037e-07 3.00252899e-07)
(4.000005635 4.986423634e-06 1.837700227e-06)
(4.000034763 2.888632745e-05 9.588776725e-06)
(4.000186056 0.0001432359715 4.218009232e-05)
(4.000858003 0.000604360101 0.0001558644451)
(4.003405573 0.002170190653 0.0004844503334)
(4.011671838 0.006658634182 0.001270990309)
(4.034740875 0.01755958689 0.002825326847)
(4.090446186 0.04006408849 0.005335363086)
(4.20757185 0.07961769725 0.00855922006)
(4.423343225 0.1386989249 0.01160864645)
(4.773687006 0.2130974388 0.01311750375)
(5.277848286 0.2903877328 0.01187958032)
(5.924205752 0.3528184873 0.00762206454)
(6.666034204 0.3840727503 0.001346574952)
(7.431664756 0.3763005793 -0.005078898976)
(8.145257686 0.3332391962 -0.009832016354)
(8.748254246 0.2677955291 -0.01194423054)
(9.211946364 0.1960207962 -0.01153868323)
(9.537576343 0.1311563062 -0.00949012354)
(9.747108026 0.0804863438 -0.006852443124)
(9.87104096 0.04544527065 -0.004419892286)
(9.938626526 0.02368170384 -0.002575657342)
(9.9727076 0.01142252082 -0.001367172328)
(9.988643443 0.005113877777 -0.0006652278721)
(9.995571353 0.002130808137 -0.000298251127)
(9.998378813 0.0008284477915 -0.0001237583468)
(9.999441944 0.0003012947527 -4.771179717e-05)
(9.999819047 0.0001027453884 -1.714894616e-05)
(9.999944632 3.292895329e-05 -5.764673426e-06)
(9.999983985 9.940360043e-06 -1.817581569e-06)
(9.999995613 2.832457075e-06 -5.389663288e-07)
(9.99999886 7.634064729e-07 -1.50684499e-07)
(9.999999719 1.950027398e-07 -3.981436078e-08)
(9.999999934 4.729845135e-08 -9.964194896e-09)
(9.999999985 1.091370344e-08 -2.366961897e-09)
(9.999999997 2.399845093e-09 -5.347550067e-10)
(9.999999999 5.037534711e-10 -1.151224209e-10)
(10 1.01107066e-10 -2.365785031e-11)
(10 1.943036061e-11 -4.649608268e-12)
(10 3.582937894e-12 -8.750750306e-13)
(10 6.31433927e-13 -1.567754542e-13)
(10 1.072919306e-13 -2.843285766e-14)
(10 2.072185958e-14 -4.541960714e-15)
(10 2.828729622e-15 -1.493040682e-15)
(10 -1.882868626e-16 -1.476314737e-16)
(10 3.402680208e-17 -2.943721345e-16)
(10 -6.12036223e-17 9.806969969e-17)
(10 -2.21191254e-16 4.79995161e-16)
(10 -2.729777437e-16 2.117003671e-16)
(10 -1.561038594e-16 2.423838618e-16)
(10 1.718635285e-17 5.068511133e-17)
(10 -1.051038964e-16 1.354202119e-16)
(10 4.96067091e-17 -1.348215455e-16)
(10 1.115252986e-16 -8.622104775e-17)
(10 3.076752834e-17 1.421700461e-16)
(10 -2.858183465e-16 -5.068969678e-16)
(10 5.511070883e-16 -1.507277402e-16)
(10 2.096637098e-16 2.865946947e-16)
(10 -1.113891792e-16 3.374768249e-16)
(10 -3.319720971e-16 2.219362038e-16)
(10 -4.939375382e-17 -1.171156205e-16)
(10 2.519679828e-16 1.434084885e-16)
(10 -2.77081731e-16 -6.306847341e-17)
(10 -4.254942731e-16 -1.228876885e-16)
(10 1.839202971e-16 -1.627934121e-16)
(10 -1.940605163e-15 3.491918206e-15)
)
;

boundaryField
{
    left
    {
        type            dirichlet;
        value           uniform (4 0 0);
    }
    right
    {
        type            dirichlet;
        value           uniform (4 0 0);
    }
    sides
    {
        type            empty;
    }
}


// ************************************************************************* //
