/*--------------------------------*- C++ -*----------------------------------*\
| =========                 |                                                 |
| \\      /  F ield         | foam-extend: Open Source CFD                    |
|  \\    /   O peration     | Version:     4.1                                |
|   \\  /    A nd           | Web:         http://www.foam-extend.org         |
|    \\/     M anipulation  |                                                 |
\*---------------------------------------------------------------------------*/
FoamFile
{
    version     2.0;
    format      ascii;
    class       cellScalarField;
    location    "46";
    object      T;
}
// * * * * * * * * * * * * * * * * * * * * * * * * * * * * * * * * * * * * * //

dimensions      [0 0 0 0 1 0 0];

internalField   nonuniform 
100
(
(4 -5.703630593e-17 1.624202108e-17)
(4 -3.094088756e-17 -1.975771315e-17)
(4 -9.611309114e-17 -5.290894232e-17)
(4 -4.763837355e-17 1.313253038e-16)
(4 -3.404330922e-16 -3.83563997e-17)
(4 -4.608683616e-16 1.802826071e-16)
(4 3.698932952e-16 1.341075127e-16)
(4 -4.435509246e-16 -1.492810081e-16)
(4 8.002445519e-16 2.549047005e-17)
(4 -1.344955998e-15 1.438387354e-18)
(4 9.10941658e-17 -9.657074815e-17)
(4 1.673998745e-16 1.706345867e-16)
(4 4.119205749e-16 4.464582305e-17)
(4 -1.041134031e-16 1.100877758e-16)
(4 1.211047369e-16 -2.264032911e-16)
(4 -1.955840953e-16 -1.196938428e-16)
(4 8.806665218e-17 -1.427218402e-19)
(4 -1.324248851e-16 1.820915564e-16)
(4 -2.573047634e-17 3.160174634e-17)
(4 -2.780489545e-16 1.287535814e-16)
(4 4.521227922e-17 2.248315802e-16)
(4 6.181958473e-17 -2.461816255e-16)
(4 2.372948279e-16 -1.188668445e-16)
(4 -4.675701013e-17 2.354975973e-17)
(4 8.466779106e-17 -6.421661579e-17)
(4 9.443705852e-17 1.581905878e-16)
(4 4.295776287e-17 -2.227223938e-17)
(4 -2.323211397e-16 -1.226510377e-16)
(4 -2.171516838e-16 -6.396176808e-17)
(4 2.598442216e-16 1.803620034e-16)
(4 -1.553140215e-16 8.899097922e-17)
(4 -5.602607282e-17 1.693027532e-16)
(4 -1.321621997e-16 -8.288302629e-17)
(4 -4.377354933e-16 6.193991261e-17)
(4 4.085672553e-16 1.961346409e-16)
(4 -5.184175867e-16 2.009310169e-16)
(4 8.901710037e-16 3.611759994e-17)
(4 -9.100325772e-16 -1.090983206e-16)
(4 4.932732649e-16 -2.537541771e-17)
(4 5.099522292e-17 -1.128193791e-16)
(4 -1.596143539e-16 -1.097078292e-16)
(4 1.035408582e-16 4.881079587e-17)
(4 -3.098703695e-17 1.372820619e-16)
(4 -9.048104411e-17 1.240834711e-16)
(4 -1.675526881e-16 6.510091415e-17)
(4 5.131301306e-16 2.823787791e-16)
(4 -9.990057247e-16 4.034904666e-17)
(4 9.00691337e-16 -3.370790429e-17)
(4 -1.070145074e-15 -1.717663796e-16)
(4 3.803042506e-16 -8.718882175e-17)
(4 -2.948491043e-17 -5.080352866e-17)
(4 9.140269584e-17 -8.546593204e-17)
(4 -3.890570881e-17 -1.37139857e-16)
(4 2.434860877e-17 -2.403641609e-16)
(4 6.258318169e-17 2.277428481e-16)
(4 -1.885772277e-16 -5.726874461e-17)
(4 -5.213812067e-18 2.190845132e-17)
(4 -6.660141955e-17 2.18715776e-16)
(4 -1.277416607e-16 2.370846258e-16)
(4 -1.079132001e-16 2.276002716e-16)
(4 2.01544386e-15 5.856415827e-16)
(4 8.568942671e-15 4.726513448e-15)
(4 9.017136289e-14 3.826991676e-14)
(4 6.785312233e-13 2.766947494e-13)
(4 4.778970802e-12 1.872120465e-12)
(4 3.150439324e-11 1.182970047e-11)
(4 1.939797119e-10 6.951354488e-11)
(4.000000001 1.111715491e-09 3.787658323e-10)
(4.000000007 5.913051667e-09 1.90785288e-09)
(4.000000038 2.911485133e-08 8.861368939e-09)
(4.000000181 1.324512858e-07 3.788175548e-08)
(4.000000798 5.560027508e-07 1.488766071e-07)
(4.000003251 2.152316299e-06 5.376094067e-07)
(4.000012253 7.683100975e-06 1.783891441e-06)
(4.000042751 2.530366765e-05 5.441701663e-06)
(4.000138205 7.6955139e-05 1.527216928e-05)
(4.000414516 0.0002163816396 3.94713216e-05)
(4.001155203 0.0005633066235 9.404326546e-05)
(4.002996545 0.001359827427 0.0002067681082)
(4.007248331 0.003048912899 0.0004199049193)
(4.016381964 0.006359935177 0.0007882253148)
(4.034665363 0.01236328361 0.001368286129)
(4.068825187 0.02243410767 0.002196559396)
(4.128489417 0.03806140411 0.003259076175)
(4.226062949 0.06047163574 0.004462502082)
(4.375697428 0.09011135262 0.005622287389)
(4.591201517 0.1261295699 0.006482730527)
(4.883095774 0.166069894 0.006773614588)
(5.255438682 0.2059713303 0.006291088001)
(5.703346801 0.2409620031 0.004974850409)
(6.212119673 0.266243992 0.002949145552)
(6.758493333 0.2781918575 0.000506363302)
(7.313898118 0.275212114 -0.001964895693)
(7.848941905 0.2580813901 -0.004082009438)
(8.337952354 0.229669115 -0.005563661372)
(8.762444541 0.1941691663 -0.006286375169)
(9.112795198 0.1561168801 -0.006288630863)
(9.388004379 0.119497167 -0.005730228024)
(9.5939638 0.08716388965 -0.004828850337)
(9.740950794 0.06064675872 -0.003798394534)
)
;

boundaryField
{
    left
    {
        type            dirichlet;
        value           uniform (4 0 0);
    }
    right
    {
        type            dirichlet;
        value           uniform (4 0 0);
    }
    sides
    {
        type            empty;
    }
}


// ************************************************************************* //
