/*--------------------------------*- C++ -*----------------------------------*\
| =========                 |                                                 |
| \\      /  F ield         | foam-extend: Open Source CFD                    |
|  \\    /   O peration     | Version:     4.1                                |
|   \\  /    A nd           | Web:         http://www.foam-extend.org         |
|    \\/     M anipulation  |                                                 |
\*---------------------------------------------------------------------------*/
FoamFile
{
    version     2.0;
    format      ascii;
    class       cellScalarField;
    location    "4.7";
    object      T;
}
// * * * * * * * * * * * * * * * * * * * * * * * * * * * * * * * * * * * * * //

dimensions      [0 0 0 0 1 0 0];

internalField   nonuniform 10((4 -6.719324651e-10 1.132442626e-10) (4.000000024 4.604085312e-08 6.274869875e-09) (3.999999891 -5.611674811e-07 2.029138052e-07) (4.000016367 2.953194876e-05 1.665486369e-05) (4.000246822 0.0001831243422 9.09260196e-05) (4.003943191 0.005409387355 0.004345299516) (4.070843541 0.07988477156 0.03088393552) (4.482589333 0.3651421534 0.06758686711) (5.614103845 0.7552535646 0.04411222469) (7.2767176 0.848477174 -0.02720125927));

boundaryField
{
    left
    {
        type            dirichlet;
        value           uniform (4 0 0);
    }
    right
    {
        type            dirichlet;
        value           uniform (4 0 0);
    }
    sides
    {
        type            empty;
    }
}


// ************************************************************************* //
