/*--------------------------------*- C++ -*----------------------------------*\
| =========                 |                                                 |
| \\      /  F ield         | foam-extend: Open Source CFD                    |
|  \\    /   O peration     | Version:     4.1                                |
|   \\  /    A nd           | Web:         http://www.foam-extend.org         |
|    \\/     M anipulation  |                                                 |
\*---------------------------------------------------------------------------*/
FoamFile
{
    version     2.0;
    format      ascii;
    class       cellScalarField;
    location    "3.6";
    object      T;
}
// * * * * * * * * * * * * * * * * * * * * * * * * * * * * * * * * * * * * * //

dimensions      [0 0 0 0 1 0 0];

internalField   nonuniform 10((4.000000078 6.63356529e-08 -1.223356459e-07) (3.999999361 7.162792951e-07 7.463553926e-06) (4.000146619 0.0001785024645 1.003749487e-05) (4.001025864 0.0008513527288 0.001837118718) (4.042275448 0.0596360411 0.03244094505) (4.455389623 0.4044497519 0.08858187502) (5.782437302 0.9002090357 0.04572278531) (7.683912955 0.9144407759 -0.0545292745) (9.122129307 0.5035121859 -0.06953033639) (9.76633686 0.1700811471 -0.0332065253));

boundaryField
{
    left
    {
        type            dirichlet;
        value           uniform (4 0 0);
    }
    right
    {
        type            dirichlet;
        value           uniform (4 0 0);
    }
    sides
    {
        type            empty;
    }
}


// ************************************************************************* //
