/*--------------------------------*- C++ -*----------------------------------*\
| =========                 |                                                 |
| \\      /  F ield         | foam-extend: Open Source CFD                    |
|  \\    /   O peration     | Version:     4.1                                |
|   \\  /    A nd           | Web:         http://www.foam-extend.org         |
|    \\/     M anipulation  |                                                 |
\*---------------------------------------------------------------------------*/
FoamFile
{
    version     2.0;
    format      ascii;
    class       cellScalarField;
    location    "4.4";
    object      T;
}
// * * * * * * * * * * * * * * * * * * * * * * * * * * * * * * * * * * * * * //

dimensions      [0 0 0 0 1 0 0];

internalField   nonuniform 
100
(
(3.999999999 2.047468968e-10 3.27490255e-09)
(4.000000076 5.46414195e-08 -9.133414986e-08)
(3.999999976 7.049326277e-07 3.894480487e-06)
(4.000076456 9.820607074e-05 2.304060102e-05)
(4.000679572 0.000575350727 0.0007265731207)
(4.017929497 0.02458991246 0.01451215426)
(4.214292489 0.2055461704 0.05714248747)
(5.018191189 0.6166520621 0.06887634163)
(6.57881699 0.8927127244 0.0009759856288)
(8.25209135 0.7266168082 -0.05782110796)
(9.346537707 0.3685160875 -0.05186540765)
(9.818092328 0.1263205421 -0.02373062738)
(9.961029044 0.03135173787 -0.007038353367)
(9.993333008 0.005971959837 -0.00151271691)
(9.999057086 0.0009158235469 -0.0002530406887)
(9.999886405 0.0001174757692 -3.465227878e-05)
(9.99998805 1.299034351e-05 -4.032285416e-06)
(9.99999888 1.268063983e-06 -4.100520154e-07)
(9.999999905 1.113466225e-07 -3.723623031e-08)
(9.999999993 8.9280401e-09 -3.070878625e-09)
(9.999999999 6.616886144e-10 -2.331083305e-10)
(10 4.577881649e-11 -1.646483786e-11)
(10 2.979918512e-12 -1.091466284e-12)
(10 1.833075768e-13 -6.808162534e-14)
(10 9.417114173e-15 -5.204378422e-15)
(10 1.426747478e-15 1.211801518e-16)
(10 -1.175764819e-15 5.122073801e-16)
(10 1.649234552e-17 3.253129111e-17)
(10 -4.64839056e-16 5.708854318e-16)
(10 3.345533958e-16 -3.149120458e-17)
(10 -4.328971306e-17 -3.387721005e-16)
(10 -2.530199056e-16 3.178180302e-17)
(10 2.796203844e-16 -2.019285163e-16)
(10 -5.700515672e-17 2.793815318e-16)
(10 -6.377192927e-16 5.6030357e-16)
(10 3.656121941e-17 1.659629412e-16)
(10 -4.461714873e-16 2.803815961e-16)
(10 8.778486599e-18 3.094342657e-17)
(10 -5.820594892e-17 2.011259441e-16)
(10 -1.57599513e-16 4.256788092e-17)
(10 -7.511951373e-17 -4.61733391e-16)
(10 2.315652212e-16 -3.373756523e-16)
(10 1.914212535e-16 -5.530711086e-16)
(10 -3.754423466e-17 -3.116279267e-16)
(10 4.619326547e-17 3.20197965e-16)
(10 -4.965320512e-17 -5.651813039e-18)
(10 3.232626165e-16 3.50258352e-16)
(10 -4.601928857e-16 -7.640301957e-17)
(10 2.618813494e-16 2.949202433e-17)
(10 -1.365865064e-16 -1.744219838e-17)
(10 2.188364463e-16 -5.564608176e-16)
(10 1.000862123e-15 -5.078880214e-16)
(10 -1.354184949e-16 7.67388769e-17)
(10 -4.236895985e-18 2.400961845e-18)
(10 -1.325615648e-19 7.511991338e-20)
(10 -4.147510002e-21 2.350308647e-21)
(10 -1.297649077e-22 7.353510527e-23)
(10 -4.060009803e-24 2.300724083e-24)
(10 -1.270272518e-25 7.198373197e-26)
(10 -3.974355601e-27 2.252185608e-27)
(10 -1.243473524e-28 7.046508807e-29)
(10 -3.890508449e-30 2.204671151e-30)
(10 -1.217239909e-31 6.897848307e-32)
(10 -3.808430225e-33 2.158159109e-33)
(10 -1.191559747e-34 6.752324105e-35)
(10 -3.728083609e-36 2.112628333e-36)
(10 -1.16642136e-37 6.609870033e-38)
(10 -3.649432069e-39 2.068058123e-39)
(10 -1.141813318e-40 6.470421321e-41)
(10 -3.572439844e-42 2.024428212e-42)
(10 -1.117724433e-43 6.333914564e-44)
(10 -3.497071927e-45 1.981718763e-45)
(10 -1.094143753e-46 6.200287697e-47)
(10 -3.42329405e-48 1.939910357e-48)
(10 -1.071060555e-49 6.069479961e-50)
(10 -3.351072669e-51 1.898983985e-51)
(10 -1.048464345e-52 5.941431881e-53)
(10 -3.280374945e-54 1.858921038e-54)
(10 -1.026344847e-55 5.816085238e-56)
(10 -3.211168734e-57 1.819703301e-57)
(10 -1.004692006e-58 5.693383038e-59)
(10 -3.143422569e-60 1.781312942e-60)
(10 -9.834959756e-62 5.573269491e-62)
(10 -3.077105648e-63 1.743732507e-63)
(10 -9.627471188e-65 5.455689985e-65)
(10 -3.012187818e-66 1.706944907e-66)
(10 -9.424360014e-68 5.340591059e-68)
(10 -2.948639562e-69 1.670933417e-69)
(10 -9.225533886e-71 5.22792038e-71)
(10 -2.886431987e-72 1.635681663e-72)
(10 -9.030902402e-74 5.117626719e-74)
(10 -2.825536807e-75 1.601173617e-75)
(10 -8.840377066e-77 5.009659929e-77)
(10 -2.765926336e-78 1.567393588e-78)
(10 -8.653871251e-80 4.903970918e-80)
(10 -2.707573469e-81 1.534326218e-81)
(10 -8.471300157e-83 4.800511633e-83)
(10 -2.650451675e-84 1.501956472e-84)
(10 -8.292580774e-86 4.699235032e-86)
(10 -1.474075288e-15 3.74836175e-15)
)
;

boundaryField
{
    left
    {
        type            dirichlet;
        value           uniform (4 0 0);
    }
    right
    {
        type            dirichlet;
        value           uniform (4 0 0);
    }
    sides
    {
        type            empty;
    }
}


// ************************************************************************* //
