/*--------------------------------*- C++ -*----------------------------------*\
| =========                 |                                                 |
| \\      /  F ield         | foam-extend: Open Source CFD                    |
|  \\    /   O peration     | Version:     4.1                                |
|   \\  /    A nd           | Web:         http://www.foam-extend.org         |
|    \\/     M anipulation  |                                                 |
\*---------------------------------------------------------------------------*/
FoamFile
{
    version     2.0;
    format      ascii;
    class       cellScalarField;
    location    "27.9";
    object      T;
}
// * * * * * * * * * * * * * * * * * * * * * * * * * * * * * * * * * * * * * //

dimensions      [0 0 0 0 1 0 0];

internalField   nonuniform 
100
(
(4 -5.703630593e-17 1.624202108e-17)
(4 -6.324407154e-17 -3.421761081e-18)
(4 2.838016896e-17 -5.127551976e-17)
(4 -7.583991269e-17 -6.803467824e-17)
(4 5.388088161e-17 1.200457027e-17)
(4 -3.957105841e-16 2.337811123e-17)
(4 4.096831399e-16 -1.27020141e-17)
(4 -4.427991428e-16 2.871338837e-16)
(4 8.319321318e-16 9.48598112e-17)
(4 -1.475271868e-15 -4.962981407e-17)
(4 1.540306434e-16 -1.482353522e-16)
(4 4.553171867e-16 -1.500963161e-17)
(4 4.538153861e-16 1.215380329e-16)
(4 3.827940393e-17 -9.955556122e-17)
(4 -2.534827061e-16 -3.648272354e-17)
(4 3.365264251e-16 -1.673687159e-16)
(4 1.447941095e-16 -1.907386849e-17)
(4 2.780404407e-16 2.412372138e-16)
(4 -7.269231139e-16 -2.911323293e-16)
(4 7.759114581e-16 9.145859666e-17)
(4 -8.759413788e-16 -2.176373062e-16)
(4 9.087067144e-16 -9.383479091e-17)
(4 -8.254010247e-16 -1.755111765e-17)
(4 8.869452548e-16 -1.859040088e-17)
(4 -9.75790885e-16 3.691532497e-16)
(4 4.696081363e-16 -9.610405678e-17)
(4 -2.697085494e-16 2.260959407e-16)
(4 8.891161486e-17 -1.406076986e-16)
(4 -4.716207274e-16 -6.622467216e-17)
(4 4.623354669e-16 8.925845129e-17)
(4 -1.745780727e-16 -1.458194831e-16)
(4 1.676202452e-15 1.768869104e-15)
(4 4.062072648e-14 2.235696202e-14)
(4 4.81237148e-13 2.494870782e-13)
(4 5.234897907e-12 2.629080163e-12)
(4 5.308082044e-11 2.559583654e-11)
(4 4.96173974e-10 2.284630499e-10)
(4.000000004 4.247127946e-09 1.856348048e-09)
(4.000000035 3.306677443e-08 1.362676267e-08)
(4.000000257 2.322805335e-07 8.942373939e-08)
(4.000001693 1.456785641e-06 5.179778685e-07)
(4.000009929 8.068887553e-06 2.618318213e-06)
(4.000051514 3.914393835e-05 1.146504645e-05)
(4.000235272 0.0001656078166 4.335435133e-05)
(4.000944759 0.0006106610779 0.0001415981253)
(4.003340828 0.001966586459 0.0004002464937)
(4.010439758 0.005551456744 0.0009818332399)
(4.028964646 0.01379834924 0.002095674774)
(4.07173332 0.03034287539 0.003898941487)
(4.159493975 0.05931821106 0.006323279869)
(4.320279325 0.1035744776 0.008914245502)
(4.584435857 0.1622513062 0.01083469888)
(4.975228854 0.228994195 0.01113425868)
(5.497871807 0.292336423 0.009209066699)
(6.132092043 0.3388291498 0.005192732111)
(6.832840557 0.3577983877 5.407116794e-06)
(7.540127322 0.3453724937 -0.005007732918)
(8.194289804 0.3056897433 -0.008644954199)
(8.750330802 0.2488271369 -0.01029685514)
(9.185912091 0.1867900158 -0.01005908046)
(9.501212942 0.1296599031 -0.008523306704)
(9.712646892 0.08343695173 -0.006430566077)
(9.844312051 0.0498963685 -0.004385518382)
(9.920629455 0.02779400101 -0.002730264594)
(9.961896534 0.01445370314 -0.001562712245)
(9.982758062 0.007032197151 -0.0008268289799)
(9.992637959 0.003207679584 -0.0004061998559)
(9.99703027 0.001374521971 -0.0001859842536)
(9.998866851 0.0005543912182 -7.962293399e-05)
(9.999590483 0.0002108629183 -3.196562911e-05)
(9.999859638 7.576908026e-05 -1.206563007e-05)
(9.999954312 2.576647994e-05 -4.2922329e-06)
(9.999985858 8.306697765e-06 -1.442287627e-06)
(9.999995832 2.542889141e-06 -4.587344048e-07)
(9.999998829 7.403632549e-07 -1.383767829e-07)
(9.999999686 2.053294923e-07 -3.966089341e-08)
(9.999999919 5.432453494e-08 -1.081988454e-08)
(9.99999998 1.373116087e-08 -2.81429943e-09)
(9.999999995 3.320416341e-09 -6.990356175e-10)
(9.999999999 7.691979683e-10 -1.660598358e-10)
(10 1.70930622e-10 -3.778369069e-11)
(10 3.64816961e-11 -8.247204421e-12)
(10 7.4846076e-12 -1.727886925e-12)
(10 1.475279721e-12 -3.46790191e-13)
(10 2.830913362e-13 -6.743726307e-14)
(10 5.28637094e-14 -1.224812753e-14)
(10 1.237421662e-14 -2.692691469e-15)
(10 4.544890276e-16 -2.196085808e-16)
(10 -3.020360821e-17 2.579528861e-16)
(10 -1.15543105e-15 1.449301843e-16)
(10 1.680183201e-16 5.92271463e-16)
(10 -7.445865152e-16 1.021203523e-15)
(10 -3.811378837e-16 -2.191664173e-16)
(10 -7.869485465e-17 8.639937784e-18)
(10 1.296019201e-16 -3.28956847e-16)
(10 5.223501287e-16 -1.521732284e-16)
(10 2.046035211e-16 -1.211102492e-16)
(10 2.050384906e-16 -1.68676063e-16)
(10 -4.66235976e-16 5.580021359e-16)
(10 -1.472958312e-15 3.349602345e-15)
)
;

boundaryField
{
    left
    {
        type            dirichlet;
        value           uniform (4 0 0);
    }
    right
    {
        type            dirichlet;
        value           uniform (4 0 0);
    }
    sides
    {
        type            empty;
    }
}


// ************************************************************************* //
