/*--------------------------------*- C++ -*----------------------------------*\
| =========                 |                                                 |
| \\      /  F ield         | foam-extend: Open Source CFD                    |
|  \\    /   O peration     | Version:     4.1                                |
|   \\  /    A nd           | Web:         http://www.foam-extend.org         |
|    \\/     M anipulation  |                                                 |
\*---------------------------------------------------------------------------*/
FoamFile
{
    version     2.0;
    format      ascii;
    class       cellScalarField;
    location    "5";
    object      T;
}
// * * * * * * * * * * * * * * * * * * * * * * * * * * * * * * * * * * * * * //

dimensions      [0 0 0 0 1 0 0];

internalField   nonuniform 10((4 -1.157590301e-10 -1.201715024e-10) (4.000000002 8.521765988e-09 8.347201797e-09) (4.000000066 -5.371426863e-08 -1.078033838e-07) (4.000001823 4.396252891e-06 5.528627936e-06) (4.000088203 9.45107985e-05 2.512533867e-05) (4.000919363 0.001003269407 0.0009740398873) (4.019838333 0.0251204564 0.0129955586) (4.196743143 0.1789950366 0.04772406864) (4.887775881 0.5310921959 0.06342747456) (6.275190452 0.8212669194 0.01454826807));

boundaryField
{
    left
    {
        type            dirichlet;
        value           uniform (4 0 0);
    }
    right
    {
        type            dirichlet;
        value           uniform (4 0 0);
    }
    sides
    {
        type            empty;
    }
}


// ************************************************************************* //
