/*--------------------------------*- C++ -*----------------------------------*\
| =========                 |                                                 |
| \\      /  F ield         | foam-extend: Open Source CFD                    |
|  \\    /   O peration     | Version:     4.1                                |
|   \\  /    A nd           | Web:         http://www.foam-extend.org         |
|    \\/     M anipulation  |                                                 |
\*---------------------------------------------------------------------------*/
FoamFile
{
    version     2.0;
    format      ascii;
    class       cellScalarField;
    location    "0.6";
    object      T;
}
// * * * * * * * * * * * * * * * * * * * * * * * * * * * * * * * * * * * * * //

dimensions      [0 0 0 0 1 0 0];

internalField   nonuniform 10((4.606422537 1.1281913 0.4941854273) (8.320428327 1.702499139 -0.3919505084) (9.879295618 0.1584903718 -0.05791196672) (9.99410219 0.008510671566 -0.003472918912) (9.999760359 0.0003619359773 -0.000154364549) (9.999991275 1.349900102e-05 -5.867495342e-06) (9.999999705 4.621096142e-07 -2.020015446e-07) (9.999999991 1.48719449e-08 -6.479817985e-09) (10 4.562087964e-10 -1.966727635e-10) (10 1.344682404e-11 -5.691049621e-12));

boundaryField
{
    left
    {
        type            dirichlet;
        value           uniform (4 0 0);
    }
    right
    {
        type            dirichlet;
        value           uniform (4 0 0);
    }
    sides
    {
        type            empty;
    }
}


// ************************************************************************* //
