/*--------------------------------*- C++ -*----------------------------------*\
| =========                 |                                                 |
| \\      /  F ield         | foam-extend: Open Source CFD                    |
|  \\    /   O peration     | Version:     4.1                                |
|   \\  /    A nd           | Web:         http://www.foam-extend.org         |
|    \\/     M anipulation  |                                                 |
\*---------------------------------------------------------------------------*/
FoamFile
{
    version     2.0;
    format      ascii;
    class       cellScalarField;
    location    "13";
    object      T;
}
// * * * * * * * * * * * * * * * * * * * * * * * * * * * * * * * * * * * * * //

dimensions      [0 0 0 0 1 0 0];

internalField   nonuniform 
100
(
(4 -5.703630593e-17 1.624202108e-17)
(4 -1.533395225e-16 2.886945014e-17)
(4 5.308311986e-17 2.947516538e-16)
(4 6.407157707e-17 1.791838241e-16)
(4 -2.085158686e-16 -5.212257343e-17)
(4 -4.795848857e-16 -1.180069961e-16)
(4 2.786079385e-16 -3.189151178e-18)
(4 -4.566017426e-16 5.421758657e-17)
(4 5.572249946e-16 -6.18446737e-18)
(4 4.003324095e-14 3.909495156e-14)
(4 8.792839243e-13 4.146338351e-13)
(4 1.555238569e-11 1.268809955e-11)
(4 3.777239274e-10 2.264784746e-10)
(4.000000005 5.539582513e-09 3.322875168e-09)
(4.000000075 8.634497117e-08 5.145430575e-08)
(4.000001035 1.142305598e-06 5.980425183e-07)
(4.000011706 1.224655842e-05 6.087236903e-06)
(4.000116439 0.0001183460436 5.441596518e-05)
(4.000986846 0.0009353700144 0.0003620874998)
(4.006506661 0.005446401195 0.001677648015)
(4.032211048 0.0229277171 0.005440320447)
(4.120853679 0.07115910036 0.01257821975)
(4.35238491 0.1672803622 0.02091162243)
(4.821342067 0.3054646658 0.02452103728)
(5.573642993 0.4428282211 0.01821727407)
(6.547158412 0.5192113911 0.003394231388)
(7.579656913 0.5003300456 -0.01216730548)
(8.489760962 0.4018691953 -0.02090602628)
(9.164831056 0.2724459984 -0.02098577247)
(9.590967606 0.1576810469 -0.01571936101)
(9.822263139 0.07872358975 -0.009470386877)
(9.931243219 0.03423253988 -0.004761339709)
(9.976216095 0.01308199191 -0.002044138877)
(9.992606719 0.004430407126 -0.0007619093387)
(9.997923865 0.001340134577 -0.0002497832949)
(9.999470516 0.0003647282764 -7.281010521e-05)
(9.999876711 8.992505526e-05 -1.904734986e-05)
(9.999973655 2.021428877e-05 -4.50871693e-06)
(9.999994808 4.167635325e-06 -9.728028214e-07)
(9.999999052 7.924663018e-07 -1.925803606e-07)
(9.999999839 1.396903112e-07 -3.518900339e-08)
(9.999999974 2.293602254e-08 -5.967157668e-09)
(9.999999996 3.523345724e-09 -9.437210618e-10)
(9.999999999 5.084569193e-10 -1.398321789e-10)
(10 6.919109724e-11 -1.949073535e-11)
(10 8.912090456e-12 -2.565302615e-12)
(10 1.088822577e-12 -3.197986175e-13)
(10 1.289972591e-13 -3.880832574e-14)
(10 1.023254178e-14 -3.81619901e-15)
(10 3.511859426e-17 4.434000262e-16)
(10 -1.924733541e-16 1.965144872e-16)
(10 -7.279365887e-17 1.247081989e-16)
(10 1.250114689e-16 -4.051926127e-17)
(10 -6.848798626e-17 -2.85874529e-16)
(10 -4.506181956e-17 -3.918161673e-17)
(10 -1.927755721e-16 2.012019965e-16)
(10 4.986521736e-16 -2.477330634e-18)
(10 4.657619272e-17 3.213210522e-16)
(10 2.837190487e-17 -4.830591112e-16)
(10 1.51203469e-16 -4.149594953e-16)
(10 4.790801687e-17 -1.892830836e-16)
(10 -5.710826154e-17 4.636067793e-16)
(10 -2.373088822e-17 -8.735848881e-18)
(10 -2.034507439e-16 9.815122336e-18)
(10 4.92409085e-17 -4.04441502e-16)
(10 -3.173055386e-16 3.076108135e-16)
(10 2.719035875e-16 -2.221100539e-16)
(10 -1.658897995e-16 2.519834942e-16)
(10 -3.048674121e-16 1.479459633e-16)
(10 -5.505436416e-17 6.818292139e-17)
(10 2.525070005e-16 3.475061025e-16)
(10 -3.21953553e-16 1.447374052e-16)
(10 3.278393943e-16 -3.137932202e-16)
(10 9.136214227e-17 5.836394947e-17)
(10 4.220980123e-17 -7.228288592e-16)
(10 2.32814466e-16 1.187155929e-17)
(10 2.66628496e-17 4.937698481e-16)
(10 -3.349636316e-17 6.279283948e-17)
(10 3.951946893e-16 -3.319033616e-16)
(10 1.564112929e-16 2.068133939e-16)
(10 -3.169649929e-17 -3.722715116e-16)
(10 4.515237424e-16 -3.318224619e-16)
(10 5.650614338e-16 8.077172526e-18)
(10 -3.499623108e-16 5.086347112e-16)
(10 5.915810904e-17 2.959490879e-16)
(10 -2.737011896e-17 7.57438348e-16)
(10 -3.70849303e-16 2.491077898e-16)
(10 -1.690516843e-16 2.021628174e-17)
(10 -3.181609643e-16 1.330965299e-16)
(10 1.521871054e-16 -4.772494891e-16)
(10 4.148471368e-16 -4.509242357e-16)
(10 4.568941539e-16 -1.377764337e-17)
(10 1.323649624e-16 -3.771064905e-16)
(10 4.242349329e-16 2.963941235e-17)
(10 1.767847958e-16 -1.98791416e-18)
(10 4.096456226e-17 -3.129887554e-17)
(10 4.766703727e-16 -5.131478902e-18)
(10 -4.155937339e-16 2.754431866e-16)
(10 -1.140003271e-16 4.273148293e-17)
(10 -1.139504186e-15 3.472726896e-15)
)
;

boundaryField
{
    left
    {
        type            dirichlet;
        value           uniform (4 0 0);
    }
    right
    {
        type            dirichlet;
        value           uniform (4 0 0);
    }
    sides
    {
        type            empty;
    }
}


// ************************************************************************* //
