/*--------------------------------*- C++ -*----------------------------------*\
| =========                 |                                                 |
| \\      /  F ield         | foam-extend: Open Source CFD                    |
|  \\    /   O peration     | Version:     4.1                                |
|   \\  /    A nd           | Web:         http://www.foam-extend.org         |
|    \\/     M anipulation  |                                                 |
\*---------------------------------------------------------------------------*/
FoamFile
{
    version     2.0;
    format      ascii;
    class       cellScalarField;
    location    "37";
    object      T;
}
// * * * * * * * * * * * * * * * * * * * * * * * * * * * * * * * * * * * * * //

dimensions      [0 0 0 0 1 0 0];

internalField   nonuniform 
100
(
(4 -5.703630593e-17 1.624202108e-17)
(4 -1.167262606e-16 4.757469572e-17)
(4 -4.133182985e-17 8.5234916e-17)
(4 -1.471416477e-16 5.923536206e-18)
(4 -1.496821385e-16 3.221856529e-17)
(4 -3.872148883e-16 1.083812994e-16)
(4 3.263904933e-16 7.368824194e-17)
(4 -5.235340516e-16 3.044232969e-17)
(4 1.016866499e-15 -2.344806132e-16)
(4 -1.255514047e-15 -1.543988461e-17)
(4 2.49137045e-16 2.797779323e-16)
(4 -4.174142059e-16 -4.035340035e-17)
(4 1.101692014e-15 -4.698546031e-17)
(4 -3.175632924e-16 6.3063005e-17)
(4 3.477431237e-16 4.999743167e-17)
(4 -3.591371026e-16 4.514051847e-16)
(4 2.583808928e-16 1.546932073e-16)
(4 -9.247011739e-16 7.038569253e-17)
(4 7.266500344e-16 -2.445032437e-16)
(4 -6.73884692e-16 -9.474396731e-17)
(4 5.043145864e-16 -2.110477435e-16)
(4 -1.584869819e-17 -1.507688649e-16)
(4 1.091862409e-17 -6.4062319e-17)
(4 2.088231339e-17 1.054918127e-16)
(4 1.071381542e-16 -8.456585281e-17)
(4 -2.232073702e-16 -4.678928583e-17)
(4 5.774110999e-16 8.261758827e-18)
(4 -8.386561903e-16 -3.224015614e-17)
(4 4.984658884e-16 -1.274457855e-16)
(4 -2.785619822e-16 -1.866155632e-17)
(4 7.529112829e-16 -1.914487281e-17)
(4 -7.891991971e-16 1.661336919e-17)
(4 5.999900202e-16 7.374376968e-17)
(4 -9.386101353e-16 5.379607636e-16)
(4 6.673183058e-16 -1.509844245e-16)
(4 -8.774271753e-16 -5.855424197e-17)
(4 5.487662051e-16 -1.088657846e-16)
(4 -2.093507168e-16 5.648836492e-17)
(4 3.129199633e-16 1.378765398e-16)
(4 7.380669472e-17 -2.151423093e-18)
(4 -3.693995445e-17 -9.796699e-17)
(4 -4.381510193e-17 4.184971041e-17)
(4 -5.48039756e-17 1.325953077e-16)
(4 -3.890919435e-17 -9.186154526e-17)
(4 -4.604643615e-16 8.745396653e-17)
(4 7.41445739e-16 1.183582335e-16)
(4 6.427628519e-15 3.94509236e-15)
(4 7.346002984e-14 3.490026959e-14)
(4 6.748254193e-13 3.084873987e-13)
(4 5.74661067e-12 2.520384393e-12)
(4 4.55379183e-11 1.914042417e-11)
(4 3.349141268e-10 1.34271644e-10)
(4.000000003 2.274287125e-09 8.652203821e-10)
(4.000000017 1.418550786e-08 5.091528782e-09)
(4.000000098 8.084323363e-08 2.720622614e-08)
(4.000000534 4.189590641e-07 1.313668039e-07)
(4.000002642 1.967110615e-06 5.712103656e-07)
(4.000011881 8.348787087e-06 2.232308243e-06)
(4.000048512 3.200186235e-05 7.836119399e-06)
(4.000179871 0.0001108225849 2.471871302e-05)
(4.00060632 0.0003471573063 7.01477407e-05)
(4.001861673 0.000985578228 0.0001793526711)
(4.005219462 0.002541677606 0.0004138028069)
(4.01339942 0.005969132069 0.0008627744926)
(4.031594081 0.01279983559 0.001627394637)
(4.068639889 0.02512746485 0.002778385214)
(4.137860948 0.04527687635 0.004291404935)
(4.256853808 0.07507400633 0.005985094583)
(4.445493787 0.1148289267 0.007503834134)
(4.721923812 0.1623986203 0.008381781477)
(5.097193269 0.2128432076 0.008188892397)
(5.570164539 0.2590703609 0.0067081758)
(6.124722446 0.2934598545 0.004059974951)
(6.730800359 0.3099601876 0.0007023084771)
(7.349374973 0.305848024 -0.002704888205)
(7.940006461 0.2824423846 -0.005513735856)
(8.468511576 0.2445278997 -0.007285078726)
(8.912434733 0.19880242 -0.007888312471)
(9.263011516 0.1520206497 -0.00747983965)
(9.523711388 0.1095062251 -0.006393251526)
(9.706531108 0.07441740436 -0.005003535544)
(9.827604974 0.04777845812 -0.003620639181)
(9.903431894 0.02902109742 -0.002438600317)
(9.948401987 0.01669948 -0.001536292378)
(9.97369006 0.009115178527 -0.0009087499636)
(9.987190476 0.004725520859 -0.0005062940053)
(9.994041418 0.00232964668 -0.000266371161)
(9.99735001 0.00109346578 -0.0001326428342)
(9.998872414 0.0004892153138 -6.264205271e-05)
(9.999540606 0.0002088652944 -2.810742772e-05)
(9.999820656 8.51888832e-05 -1.20024238e-05)
(9.999932857 3.322896664e-05 -4.885118295e-06)
(9.999975875 1.240861194e-05 -1.897843894e-06)
(9.999991674 4.440643911e-06 -7.047074943e-07)
(9.999997238 1.524467258e-06 -2.504218805e-07)
(9.999999118 5.025301467e-07 -8.526585032e-08)
(9.999999729 1.592172778e-07 -2.78495284e-08)
(9.99999992 4.852935048e-08 -8.735329739e-09)
(9.999999977 1.424286926e-08 -2.634019703e-09)
(9.999999994 4.02858003e-09 -7.643219374e-10)
)
;

boundaryField
{
    left
    {
        type            dirichlet;
        value           uniform (4 0 0);
    }
    right
    {
        type            dirichlet;
        value           uniform (4 0 0);
    }
    sides
    {
        type            empty;
    }
}


// ************************************************************************* //
