/*--------------------------------*- C++ -*----------------------------------*\
| =========                 |                                                 |
| \\      /  F ield         | foam-extend: Open Source CFD                    |
|  \\    /   O peration     | Version:     4.1                                |
|   \\  /    A nd           | Web:         http://www.foam-extend.org         |
|    \\/     M anipulation  |                                                 |
\*---------------------------------------------------------------------------*/
FoamFile
{
    version     2.0;
    format      ascii;
    class       cellScalarField;
    location    "48";
    object      T;
}
// * * * * * * * * * * * * * * * * * * * * * * * * * * * * * * * * * * * * * //

dimensions      [0 0 0 0 1 0 0];

internalField   nonuniform 
100
(
(4 -5.703630593e-17 1.624202108e-17)
(4 -4.42848046e-17 1.125333274e-16)
(4 -6.481743238e-17 1.663280977e-17)
(4 -3.700408534e-17 1.338498778e-16)
(4 -3.261846541e-17 1.434291284e-16)
(4 -4.406291067e-16 1.606605681e-16)
(4 4.115614322e-16 6.573222209e-17)
(4 -4.734929448e-16 -3.65041494e-17)
(4 8.648733486e-16 1.975318209e-16)
(4 -1.302890991e-15 2.049357592e-16)
(4 -2.668083361e-17 3.07950826e-17)
(4 3.718222817e-16 -6.365697484e-17)
(4 6.158290321e-16 1.896893218e-16)
(4 -2.074516125e-16 -5.89855005e-16)
(4 5.065435675e-16 -8.3201711e-17)
(4 -4.942536412e-16 2.404416561e-16)
(4 4.277236787e-17 -1.364158573e-16)
(4 2.612769554e-17 -1.580736857e-16)
(4 1.476880083e-16 -1.230183324e-16)
(4 -1.06644634e-16 2.288934023e-16)
(4 -2.196537556e-16 -1.063164805e-16)
(4 -1.353844705e-16 5.338096488e-17)
(4 -4.107695625e-18 1.295644524e-17)
(4 -1.537827045e-16 -1.687675329e-16)
(4 1.25746188e-16 9.386765623e-17)
(4 1.397913659e-17 1.37457365e-16)
(4 5.49418005e-17 -1.757303626e-17)
(4 -1.688143092e-16 2.016230889e-16)
(4 -6.356685491e-16 -8.081048777e-17)
(4 3.820609989e-16 1.491598294e-16)
(4 -6.762790522e-17 9.609493806e-18)
(4 -5.059162862e-17 5.817810713e-17)
(4 -6.494487505e-17 -6.348634964e-17)
(4 -2.703014982e-16 1.681170117e-16)
(4 3.304186177e-16 -7.946805428e-17)
(4 -2.397598747e-16 2.9352868e-16)
(4 5.872869447e-16 1.023555752e-16)
(4 -7.965364565e-16 8.760682227e-17)
(4 5.059167133e-16 2.494581914e-17)
(4 -8.600927555e-17 2.328171689e-16)
(4 -1.650189632e-17 2.372278605e-16)
(4 -9.825675592e-17 -5.99274313e-17)
(4 -1.002746954e-16 1.304674093e-16)
(4 -1.138866977e-16 7.487658903e-17)
(4 -3.942638849e-16 -1.187666007e-16)
(4 8.667884304e-16 -5.410445783e-17)
(4 -8.651483082e-16 2.66085743e-16)
(4 9.196760879e-16 -5.373007776e-17)
(4 -9.272368253e-16 1.816437788e-16)
(4 4.565290081e-16 -1.190778313e-16)
(4 -8.20215425e-17 -1.134442524e-16)
(4 -8.309482677e-17 1.047179586e-16)
(4 1.834014363e-17 -1.232793642e-16)
(4 1.390549267e-16 -8.126775548e-17)
(4 -1.516625244e-16 -1.113083929e-16)
(4 5.076801338e-17 6.547558886e-17)
(4 1.291710334e-16 -9.97474898e-18)
(4 -1.743080764e-16 -9.514398087e-17)
(4 -1.64079887e-16 6.179368965e-17)
(4 -8.662294422e-17 1.671993854e-17)
(4 1.711379515e-16 1.919312789e-16)
(4 -1.10844522e-16 2.158767803e-16)
(4 -1.821032826e-16 -1.498056051e-16)
(4 2.92123252e-16 4.030958454e-16)
(4 5.276980897e-15 2.14266452e-15)
(4 4.515660029e-14 1.951414844e-14)
(4 3.317835602e-13 1.332809865e-13)
(4 2.29727563e-12 8.939893033e-13)
(4 1.497863848e-11 5.58486757e-12)
(4 9.133879689e-11 3.255374636e-11)
(4.000000001 5.199014855e-10 1.765068993e-10)
(4.000000003 2.754958044e-09 8.87747641e-10)
(4.000000018 1.355966665e-08 4.132371305e-09)
(4.000000085 6.187946745e-08 1.777231733e-08)
(4.000000374 2.615038805e-07 7.054034026e-08)
(4.000001536 1.022739426e-06 2.582508929e-07)
(4.000005851 3.701363084e-06 8.72037248e-07)
(4.000020703 1.240006236e-05 2.71686708e-06)
(4.000068078 3.848310747e-05 7.814849589e-06)
(4.000208253 0.0001107500755 2.077086004e-05)
(4.000593428 0.0002959238144 5.105960887e-05)
(4.00157758 0.0007351470993 0.0001162002289)
(4.003919044 0.001700445057 0.0002450406913)
(4.009113787 0.003667768763 0.0004791959151)
(4.019876873 0.007388518416 0.0008695342758)
(4.040733912 0.01392170412 0.001464489725)
(4.078591579 0.02457323272 0.002289055743)
(4.143048915 0.04069202549 0.003317998548)
(4.246141229 0.06330816655 0.004452747843)
(4.401243332 0.09266635761 0.005515292735)
(4.621045086 0.1277868525 0.006270443488)
(4.914832551 0.1662351029 0.006478409892)
(5.285660492 0.2042601381 0.005965558059)
(5.728227719 0.2373570616 0.004689232945)
(6.228223977 0.2611522493 0.002770027294)
(6.763565881 0.2723683976 0.0004750059071)
(7.307382993 0.2695708102 -0.001845577985)
(7.832065359 0.2534594747 -0.003846674745)
(8.313361398 0.2266289052 -0.005271110818)
(8.733542762 0.1928993834 -0.005999869402)
)
;

boundaryField
{
    left
    {
        type            dirichlet;
        value           uniform (4 0 0);
    }
    right
    {
        type            dirichlet;
        value           uniform (4 0 0);
    }
    sides
    {
        type            empty;
    }
}


// ************************************************************************* //
