/*--------------------------------*- C++ -*----------------------------------*\
| =========                 |                                                 |
| \\      /  F ield         | foam-extend: Open Source CFD                    |
|  \\    /   O peration     | Version:     4.1                                |
|   \\  /    A nd           | Web:         http://www.foam-extend.org         |
|    \\/     M anipulation  |                                                 |
\*---------------------------------------------------------------------------*/
FoamFile
{
    version     2.0;
    format      ascii;
    class       cellScalarField;
    location    "7.3";
    object      T;
}
// * * * * * * * * * * * * * * * * * * * * * * * * * * * * * * * * * * * * * //

dimensions      [0 0 0 0 1 0 0];

internalField   nonuniform 
100
(
(4 2.302658055e-15 6.296872855e-16)
(4 -1.248454029e-13 -2.686416874e-14)
(4 5.660502908e-12 2.147156013e-12)
(4 -8.608278518e-11 -2.679366642e-11)
(4.000000001 3.242248299e-09 2.382955986e-09)
(4.000000032 2.072990662e-08 4.165679902e-09)
(4.000000599 8.966167035e-07 8.76954439e-07)
(4.000016856 2.000491756e-05 9.413504804e-06)
(4.000204321 0.0002134714206 0.0001342420675)
(4.002823066 0.003276394765 0.001774569113)
(4.029541771 0.02914759908 0.01034995299)
(4.177381538 0.1336430959 0.02959421521)
(4.652759493 0.3558083063 0.04422370026)
(5.620497795 0.60362605 0.02982700268)
(6.950515179 0.6966070891 -0.007486070241)
(8.245801088 0.5742876135 -0.03466888519)
(9.174869588 0.3517671221 -0.03586884097)
(9.681889862 0.1655117433 -0.0227068826)
(9.898506802 0.06159497461 -0.01029959841)
(9.972841968 0.0186096095 -0.00359040161)
(9.993814333 0.004672574226 -0.001004907378)
(9.998782785 0.0009955314609 -0.0002331592345)
(9.999790102 0.0001833349091 -4.59893656e-05)
(9.999967863 2.965943034e-05 -7.871758714e-06)
(9.999995579 4.275140919e-06 -1.18940051e-06)
(9.999999448 5.558407088e-07 -1.609453863e-07)
(9.999999937 6.588720864e-08 -1.974336784e-08)
(9.999999993 7.186712653e-09 -2.218570291e-09)
(9.999999999 7.271759715e-10 -2.304121721e-10)
(10 6.87377576e-11 -2.228789071e-11)
(10 6.106413058e-12 -2.02183649e-12)
(10 5.113632623e-13 -1.723962234e-13)
(10 4.372879348e-14 -1.416433118e-14)
(10 9.37489754e-16 -4.959189609e-16)
(10 -6.29230222e-17 4.438101159e-16)
(10 2.254202754e-16 6.506352733e-16)
(10 -4.192411627e-16 7.307479169e-16)
(10 2.336808185e-16 4.56368261e-16)
(10 4.300455439e-17 -3.364972001e-16)
(10 1.449642786e-15 3.824047388e-16)
(10 -7.776443894e-16 -1.398276952e-16)
(10 1.142363556e-15 4.605512516e-16)
(10 -1.893181878e-15 1.779555819e-16)
(10 7.530798976e-16 -7.360124547e-16)
(10 -3.627476584e-17 2.014227975e-16)
(10 9.656096492e-17 2.554115592e-16)
(10 -1.450128562e-16 6.59013334e-17)
(10 -5.097549393e-16 4.264604101e-16)
(10 -4.174727543e-17 2.38207894e-16)
(10 -4.630385207e-16 4.131235113e-16)
(10 1.84436129e-17 1.423140457e-16)
(10 -3.313024753e-16 2.33146339e-16)
(10 4.683233393e-16 3.789546976e-16)
(10 -3.818825255e-16 -3.410447586e-16)
(10 -3.768293797e-17 1.252406089e-16)
(10 -1.558015373e-16 6.354696271e-16)
(10 -6.271848277e-16 2.798972172e-16)
(10 3.013673223e-17 -1.418887275e-16)
(10 3.376524338e-16 -6.385584552e-17)
(10 -1.711844211e-16 2.263353132e-16)
(10 -2.523298773e-16 -1.508225036e-16)
(10 -2.922187996e-16 -7.778029021e-17)
(10 1.808607958e-16 3.070162787e-16)
(10 -2.493189259e-16 3.164087687e-16)
(10 -1.918092485e-16 5.745622757e-16)
(10 -1.639458028e-16 1.420049572e-16)
(10 -1.300682109e-16 2.757501344e-16)
(10 -2.409990997e-16 1.553484204e-17)
(10 -3.093905255e-16 6.489192761e-17)
(10 3.124138406e-16 -3.661027567e-16)
(10 3.185463172e-17 4.968406569e-17)
(10 -1.456091117e-16 -3.763257675e-16)
(10 4.130560516e-17 4.553089121e-16)
(10 -1.080810088e-16 -2.660973724e-18)
(10 4.231710706e-16 5.910967819e-16)
(10 -2.706746476e-16 1.292976294e-16)
(10 2.353702228e-16 1.995407413e-16)
(10 -2.666489959e-16 -2.68807183e-17)
(10 1.364853921e-16 1.749757891e-17)
(10 -2.188385902e-16 5.564619917e-16)
(10 -1.000862169e-15 5.078880463e-16)
(10 1.354184939e-16 -7.673887637e-17)
(10 4.236895964e-18 -2.400961834e-18)
(10 1.325615644e-19 -7.511991314e-20)
(10 4.147509994e-21 -2.350308642e-21)
(10 1.297649075e-22 -7.353510517e-23)
(10 4.060009799e-24 -2.300724081e-24)
(10 1.270272517e-25 -7.198373192e-26)
(10 3.974355599e-27 -2.252185607e-27)
(10 1.243473524e-28 -7.046508805e-29)
(10 3.890508449e-30 -2.204671151e-30)
(10 1.217239909e-31 -6.897848307e-32)
(10 3.808430225e-33 -2.158159109e-33)
(10 1.191559747e-34 -6.752324105e-35)
(10 3.728083609e-36 -2.112628333e-36)
(10 1.16642136e-37 -6.609870033e-38)
(10 3.649432069e-39 -2.068058123e-39)
(10 1.141813318e-40 -6.470421321e-41)
(10 3.572439844e-42 -2.024428212e-42)
(10 -1.779998562e-15 4.294156174e-15)
)
;

boundaryField
{
    left
    {
        type            dirichlet;
        value           uniform (4 0 0);
    }
    right
    {
        type            dirichlet;
        value           uniform (4 0 0);
    }
    sides
    {
        type            empty;
    }
}


// ************************************************************************* //
