/*--------------------------------*- C++ -*----------------------------------*\
| =========                 |                                                 |
| \\      /  F ield         | foam-extend: Open Source CFD                    |
|  \\    /   O peration     | Version:     4.1                                |
|   \\  /    A nd           | Web:         http://www.foam-extend.org         |
|    \\/     M anipulation  |                                                 |
\*---------------------------------------------------------------------------*/
FoamFile
{
    version     2.0;
    format      ascii;
    class       cellScalarField;
    location    "43.4";
    object      T;
}
// * * * * * * * * * * * * * * * * * * * * * * * * * * * * * * * * * * * * * //

dimensions      [0 0 0 0 1 0 0];

internalField   nonuniform 
100
(
(4 -5.703630593e-17 1.624202108e-17)
(4 -4.142257402e-17 1.618668054e-16)
(4 -1.706420605e-16 5.169053558e-18)
(4 -1.12925591e-16 1.293269258e-16)
(4 -1.021349496e-16 6.611233357e-17)
(4 -3.606569303e-16 1.891823139e-17)
(4 2.199525584e-16 2.411887275e-16)
(4 -5.420033676e-16 2.134648075e-16)
(4 7.562109537e-16 -3.501361161e-17)
(4 -1.3343277e-15 -1.138878519e-16)
(4 1.256369866e-16 -1.497038525e-16)
(4 1.921167481e-16 1.198438231e-16)
(4 5.617550999e-16 1.594702072e-16)
(4 -2.082936047e-16 9.343158855e-17)
(4 2.281563779e-16 1.541042034e-16)
(4 -1.064515118e-17 1.190730422e-16)
(4 -6.007796174e-17 2.214645205e-16)
(4 -1.594549025e-19 -1.216779326e-16)
(4 -8.40032715e-17 3.782816219e-16)
(4 5.871960546e-17 -2.51241248e-17)
(4 -1.204694237e-16 3.427787513e-16)
(4 -2.837933431e-17 2.88435426e-17)
(4 -4.905258011e-17 -9.924122955e-17)
(4 1.233643906e-17 2.430320757e-16)
(4 -2.318293522e-16 -1.818390196e-16)
(4 4.976138778e-17 -5.263610806e-17)
(4 -1.09908341e-16 -7.3282363e-17)
(4 -7.44342518e-18 -1.477360272e-16)
(4 1.181561078e-16 8.403281555e-17)
(4 -2.437728247e-16 2.731846797e-16)
(4 3.941265108e-16 -1.462529366e-16)
(4 -5.36986812e-17 -2.972498748e-18)
(4 -7.18858023e-17 -3.84743893e-18)
(4 -4.114266606e-16 -1.028653574e-16)
(4 4.073420183e-16 5.274089511e-18)
(4 -2.008385033e-16 -7.964941172e-18)
(4 7.393688152e-16 2.827129773e-17)
(4 -8.656906713e-16 3.474341188e-16)
(4 4.51305862e-16 2.213275652e-17)
(4 -2.227810928e-16 -6.068900434e-17)
(4 5.376935592e-17 1.635085643e-17)
(4 -2.836360934e-17 -5.279796176e-17)
(4 -1.350375672e-17 -4.125668543e-17)
(4 -2.257782603e-16 2.521299767e-17)
(4 -1.755361975e-16 1.036323699e-17)
(4 7.567189992e-16 1.196218497e-16)
(4 -5.855057092e-16 1.97529089e-17)
(4 5.045273258e-16 2.011435604e-17)
(4 -8.078328673e-16 -1.259461002e-16)
(4 3.802545262e-16 1.342186746e-16)
(4 -5.141885178e-18 2.629820391e-17)
(4 -2.420157544e-16 5.893050212e-17)
(4 5.439631018e-16 1.511793376e-16)
(4 -8.0874786e-16 -1.668928808e-16)
(4 8.840728681e-16 -1.324610118e-16)
(4 -8.998645793e-16 2.041477727e-16)
(4 3.114110454e-15 9.433855793e-16)
(4 2.024762971e-14 9.975126086e-15)
(4 1.818193494e-13 7.852445586e-14)
(4 1.401245955e-12 5.832412493e-13)
(4 1.015093093e-11 4.043263627e-12)
(4 6.859056222e-11 2.613527463e-11)
(4.000000001 4.313934927e-10 1.56595547e-10)
(4.000000003 2.516230616e-09 8.664327934e-10)
(4.000000017 1.356466313e-08 4.411013787e-09)
(4.000000088 6.738487007e-08 2.060199286e-08)
(4.00000042 3.077696715e-07 8.808699549e-08)
(4.000001853 1.290518965e-06 3.443352627e-07)
(4.000007525 4.964719472e-06 1.229972601e-06)
(4.000028143 1.752461171e-05 4.01525097e-06)
(4.000097007 5.679575331e-05 1.198678464e-05)
(4.000308527 0.0001691941609 3.275476301e-05)
(4.000906771 0.0004639667882 8.201867146e-05)
(4.002467198 0.001173126886 0.0001884179265)
(4.006227156 0.002739944335 0.0003975371807)
(4.014611581 0.005922280191 0.0007710388024)
(4.031945952 0.01186883357 0.001375575233)
(4.065233609 0.02209611971 0.002257734828)
(4.124715578 0.03828388741 0.003407400839)
(4.22379536 0.0618431126 0.004721477548)
(4.377905862 0.09330430096 0.005988004272)
(4.602115145 0.1316986377 0.006910178369)
(4.907713662 0.1741960557 0.007176478222)
(5.298556801 0.2162493477 0.006560396115)
(5.768299561 0.2523407078 0.005012858962)
(6.29961565 0.2771838268 0.00270571177)
(6.86596857 0.2870153706 1.618812825e-06)
(7.435669448 0.2805340635 -0.002642643961)
(7.977166198 0.2591640825 -0.004802931728)
(8.46410936 0.226578518 -0.006196231606)
(8.878891563 0.1876916215 -0.00673402122)
(9.213957452 0.1474903278 -0.006510112504)
(9.470938652 0.1100699553 -0.005739353467)
(9.658270327 0.07809793987 -0.004678086387)
(9.788204496 0.05274006209 -0.003555863307)
(9.87404418 0.03393308604 -0.002535458589)
(9.928112543 0.02082219871 -0.001703264915)
(9.960614893 0.01219768308 -0.001081622757)
(9.97927945 0.006827968324 -0.0006510443276)
(9.989527858 0.003655731969 -0.0003722770281)
)
;

boundaryField
{
    left
    {
        type            dirichlet;
        value           uniform (4 0 0);
    }
    right
    {
        type            dirichlet;
        value           uniform (4 0 0);
    }
    sides
    {
        type            empty;
    }
}


// ************************************************************************* //
