/*--------------------------------*- C++ -*----------------------------------*\
| =========                 |                                                 |
| \\      /  F ield         | foam-extend: Open Source CFD                    |
|  \\    /   O peration     | Version:     4.1                                |
|   \\  /    A nd           | Web:         http://www.foam-extend.org         |
|    \\/     M anipulation  |                                                 |
\*---------------------------------------------------------------------------*/
FoamFile
{
    version     2.0;
    format      ascii;
    class       volScalarField;
    location    "0";
    object      fvMesh/fvC;
}
// * * * * * * * * * * * * * * * * * * * * * * * * * * * * * * * * * * * * * //

dimensions      [0 0 0 0 0 0 0];

internalField   nonuniform List<scalar> 
36
(
-1
-1
-1
-1
-1
-1
-1
-0.999999999999
-0.999999998402
-0.999999998399
-0.999999999999
-1
-1
-0.999999998404
-0.99962733319
-0.999625839817
-0.999999998396
-1
-1
-0.999999998404
-0.99962733319
-0.999625839817
-0.999999998396
-1
-1
-0.999999999999
-0.999999998402
-0.999999998399
-0.999999999999
-1
-1
-1
-1
-1
-1
-1
)
;

boundaryField
{
    top
    {
        type            zeroGradient;
    }
    bottom
    {
        type            zeroGradient;
    }
    left
    {
        type            zeroGradient;
    }
    right
    {
        type            zeroGradient;
    }
    frontAndBack
    {
        type            zeroGradient;
    }
}


// ************************************************************************* //
