/*--------------------------------*- C++ -*----------------------------------*\
| =========                 |                                                 |
| \\      /  F ield         | foam-extend: Open Source CFD                    |
|  \\    /   O peration     | Version:     4.1                                |
|   \\  /    A nd           | Web:         http://www.foam-extend.org         |
|    \\/     M anipulation  |                                                 |
\*---------------------------------------------------------------------------*/
FoamFile
{
    version     2.0;
    format      ascii;
    class       cellScalarField;
    location    "25.9";
    object      T;
}
// * * * * * * * * * * * * * * * * * * * * * * * * * * * * * * * * * * * * * //

dimensions      [0 0 0 0 1 0 0];

internalField   nonuniform 
100
(
(4 -5.703630593e-17 1.624202108e-17)
(4 -1.187895347e-16 -1.647979451e-17)
(4 7.859137783e-17 4.839370266e-17)
(4 -8.288481974e-17 1.535059757e-16)
(4 2.035486486e-17 7.236925834e-17)
(4 -3.423017147e-16 2.578471487e-16)
(4 2.752648763e-16 5.79408988e-17)
(4 -3.911895694e-16 4.545379722e-17)
(4 6.538940773e-16 -7.561680994e-17)
(4 -1.154023516e-15 5.293885252e-17)
(4 7.804115714e-17 5.435589782e-17)
(4 1.565996978e-15 -9.415275031e-18)
(4 -1.745393236e-15 8.306690373e-17)
(4 1.042904481e-15 -1.973183178e-16)
(4 -4.532231607e-16 4.428641078e-16)
(4 1.308946999e-16 -9.907217491e-17)
(4 5.569675262e-17 2.509388818e-16)
(4 2.646976181e-17 1.382147728e-16)
(4 6.576875336e-17 2.434393309e-16)
(4 -1.366649324e-16 6.522675629e-17)
(4 -3.387129328e-18 1.523814e-16)
(4 3.966813429e-17 -2.48166648e-17)
(4 -1.591389206e-16 -2.556050017e-17)
(4 1.032674585e-17 1.099563431e-16)
(4 -1.296988233e-17 1.542429805e-17)
(4 -1.65767348e-16 7.058688745e-17)
(4 3.851758052e-16 2.0338422e-16)
(4 -7.350431107e-16 3.026760318e-16)
(4 5.457223336e-15 3.042809017e-15)
(4 6.625544375e-14 3.615707989e-14)
(4 8.056710291e-13 4.299948156e-13)
(4 9.240119444e-12 4.748575989e-12)
(4 9.791268747e-11 4.829397361e-11)
(4.000000001 9.536851404e-10 4.486790451e-10)
(4.000000009 8.470794674e-09 3.776864632e-09)
(4.000000072 6.812274909e-08 2.858564123e-08)
(4.000000539 4.917939603e-07 1.92223124e-07)
(4.000003624 3.147407534e-06 1.130416324e-06)
(4.000021558 1.761695672e-05 5.732141223e-06)
(4.000112335 8.538416065e-05 2.484909657e-05)
(4.000509966 0.0003566782786 9.181688209e-05)
(4.002015135 0.001284183515 0.0002894156361)
(4.006948386 0.003997239832 0.0007804057855)
(4.021003631 0.01080783232 0.001806080477)
(4.055986532 0.02552392375 0.003596877403)
(4.132458718 0.05294843925 0.006170802173)
(4.2800652 0.09702287645 0.009102579234)
(4.532942411 0.1578768627 0.01146076307)
(4.919354777 0.2292764616 0.01208794271)
(5.448455127 0.2985596418 0.01017390418)
(6.100464427 0.3501335311 0.005791916539)
(6.826507694 0.3713163186 6.641331663e-06)
(7.559871365 0.3574595808 -0.005570518049)
(8.234214718 0.3135068208 -0.009511605379)
(8.800605015 0.2513502825 -0.01113904157)
(9.23653107 0.18480754 -0.01064033734)
(9.544914391 0.1249949699 -0.008770543334)
(9.746011382 0.07799361218 -0.00640633933)
(9.867226219 0.04502183263 -0.004211039735)
(9.934941884 0.02410667122 -0.002516414751)
(9.970090378 0.01200346057 -0.001377196373)
(9.987083256 0.005571765264 -0.000694263852)
(9.99475314 0.002416674824 -0.0003238990076)
(9.997992467 0.0009816740568 -0.00014040634)
(9.999275426 0.0003742739906 -5.675112896e-05)
(9.999752933 0.0001342151581 -2.145511055e-05)
(9.999920288 4.536154057e-05 -7.608331319e-06)
(9.999975629 1.447780631e-05 -2.537382206e-06)
(9.999992928 4.371915306e-06 -7.977647445e-07)
(9.999998049 1.251387557e-06 -2.369971091e-07)
(9.999999488 3.40120531e-07 -6.6668232e-08)
(9.999999872 8.793020202e-08 -1.77942514e-08)
(9.999999969 2.165833659e-08 -4.514993546e-09)
(9.999999993 5.090802516e-09 -1.091042333e-09)
(9.999999998 1.143639387e-09 -2.515287577e-10)
(10 2.459050471e-10 -5.541183216e-11)
(10 5.06825435e-11 -1.168320768e-11)
(10 1.003004768e-11 -2.362535196e-12)
(10 1.903186498e-12 -4.575180025e-13)
(10 3.455460415e-13 -8.453702821e-14)
(10 6.512745663e-14 -1.57714973e-14)
(10 1.148546826e-14 -2.52001362e-15)
(10 1.273175884e-15 -1.354587284e-15)
(10 1.171649455e-17 -5.501760671e-16)
(10 -8.220071916e-17 -6.82531794e-17)
(10 3.517771273e-16 -8.834148285e-18)
(10 7.771791584e-17 -5.045280352e-16)
(10 -1.863882921e-16 -4.960129942e-17)
(10 1.406544238e-16 -1.141706866e-17)
(10 -1.627496913e-18 8.634119976e-17)
(10 1.070999556e-16 -4.232822384e-16)
(10 3.04095215e-16 -3.477996274e-16)
(10 -9.721291733e-17 -2.037356529e-16)
(10 6.089759352e-16 4.138062108e-17)
(10 -9.6411535e-17 1.484576245e-16)
(10 -1.116667803e-16 1.451185037e-16)
(10 2.029125454e-16 1.666894248e-16)
(10 -4.516250256e-16 4.394604006e-16)
(10 5.013140315e-16 2.036316684e-17)
(10 -2.37228182e-16 3.671632923e-15)
)
;

boundaryField
{
    left
    {
        type            dirichlet;
        value           uniform (4 0 0);
    }
    right
    {
        type            dirichlet;
        value           uniform (4 0 0);
    }
    sides
    {
        type            empty;
    }
}


// ************************************************************************* //
