/*--------------------------------*- C++ -*----------------------------------*\
| =========                 |                                                 |
| \\      /  F ield         | foam-extend: Open Source CFD                    |
|  \\    /   O peration     | Version:     4.1                                |
|   \\  /    A nd           | Web:         http://www.foam-extend.org         |
|    \\/     M anipulation  |                                                 |
\*---------------------------------------------------------------------------*/
FoamFile
{
    version     2.0;
    format      ascii;
    class       cellScalarField;
    location    "19";
    object      T;
}
// * * * * * * * * * * * * * * * * * * * * * * * * * * * * * * * * * * * * * //

dimensions      [0 0 0 0 1 0 0];

internalField   nonuniform 
100
(
(4 -5.703630593e-17 1.624202108e-17)
(4 -5.288622182e-17 -7.243184668e-17)
(4 5.52176187e-17 -6.554819801e-17)
(4 -9.138751225e-17 -9.899525957e-17)
(4 1.272045341e-16 -1.266626419e-16)
(4 -4.008504076e-16 1.319151531e-16)
(4 3.977872458e-16 9.868466125e-17)
(4 -1.607033413e-16 1.748834701e-16)
(4 5.85495966e-16 -6.147094995e-17)
(4 -1.289649802e-15 -2.575991326e-17)
(4 -2.594237493e-17 1.578688679e-16)
(4 1.311803065e-15 -1.125166639e-16)
(4 -6.234817566e-16 -2.435237882e-16)
(4 3.091625492e-16 1.205839442e-16)
(4 2.157565069e-16 2.381324064e-16)
(4 1.28910447e-15 -3.275128079e-16)
(4 -1.396037773e-16 -1.086072639e-16)
(4 2.588409284e-15 1.198592328e-15)
(4 3.519813823e-14 2.314136776e-14)
(4 5.960230832e-13 3.629223728e-13)
(4 9.22702869e-12 5.411583375e-12)
(4 1.272808187e-10 7.081037399e-11)
(4.000000001 1.590370541e-09 8.535612332e-10)
(4.000000017 1.815350594e-08 9.21892866e-09)
(4.000000179 1.837446056e-07 8.740244883e-08)
(4.000001663 1.644538994e-06 7.312061947e-07)
(4.000013685 1.292882228e-05 5.265489401e-06)
(4.000097541 8.645953036e-05 3.125668218e-05)
(4.000585796 0.000476267444 0.0001487343517)
(4.002914671 0.002129764122 0.0005629560863)
(4.011979461 0.007734232506 0.001700580283)
(4.040923803 0.02299362645 0.004127360854)
(4.117443972 0.05657247277 0.008090769707)
(4.286680994 0.1164880314 0.01281423444)
(4.603016624 0.202888428 0.01623460034)
(5.107527587 0.3018379037 0.01589121919)
(5.80008214 0.3869722998 0.01066185628)
(6.624893249 0.4309896549 0.001914344478)
(7.483368747 0.420063022 -0.007107387193)
(8.269453405 0.3606922365 -0.01324794399)
(8.906617115 0.2745508984 -0.01514158262)
(9.366402869 0.1863248251 -0.01347522004)
(9.663366389 0.1133483988 -0.01001530906)
(9.835900384 0.06212284648 -0.006421234863)
(9.926500721 0.03082125554 -0.003619126396)
(9.969694502 0.01390513813 -0.001816204813)
(9.98847063 0.005729166301 -0.0008192934474)
(9.995942936 0.002164584041 -0.0003347611058)
(9.998676048 0.0007528653766 -0.0001246880989)
(9.999598258 0.0002419553866 -4.257116827e-05)
(9.999886341 7.210575964e-05 -1.338888025e-05)
(9.999969939 1.999367026e-05 -3.896211178e-06)
(9.999992547 5.174955167e-06 -1.053359306e-06)
(9.999998264 1.254153022e-06 -2.655679131e-07)
(9.999999619 2.854300604e-07 -6.265442293e-08)
(9.999999921 6.117424731e-08 -1.387760543e-08)
(9.999999984 1.237977685e-08 -2.89455778e-09)
(9.999999997 2.371545064e-09 -5.70151893e-10)
(9.999999999 4.310928956e-10 -1.063406044e-10)
(10 7.452794215e-11 -1.882768991e-11)
(10 1.228206094e-11 -3.172605009e-12)
(10 1.931961951e-12 -5.107137627e-13)
(10 2.848262034e-13 -7.740376676e-14)
(10 4.049644942e-14 -1.063038947e-14)
(10 8.910521109e-15 -2.908088195e-15)
(10 4.815183288e-16 -2.200206822e-17)
(10 -1.240911589e-16 -2.063033036e-17)
(10 -1.488048334e-16 -5.227485967e-17)
(10 -2.123258031e-16 7.400208351e-17)
(10 -2.745881538e-16 1.06435377e-16)
(10 -1.795088136e-16 -4.192412898e-16)
(10 1.794137108e-16 -2.659569211e-17)
(10 -2.782813876e-16 8.564862552e-17)
(10 7.430951762e-17 -1.873365707e-16)
(10 -3.487712348e-16 -7.723189757e-17)
(10 9.841753762e-17 3.457629733e-16)
(10 -4.950947681e-16 1.968663535e-16)
(10 1.960319097e-16 -1.170816304e-17)
(10 2.762073192e-16 2.153567459e-16)
(10 -2.879008165e-16 2.995919139e-16)
(10 -1.783227355e-16 2.78783584e-16)
(10 1.055693009e-16 -1.137511805e-17)
(10 -1.753382339e-16 -4.899547311e-16)
(10 -2.416259438e-16 7.048611628e-16)
(10 -3.271731158e-16 -2.599086084e-16)
(10 1.774179247e-16 1.383291555e-16)
(10 -1.226323665e-16 1.917845504e-16)
(10 -2.608378759e-16 -2.540145283e-16)
(10 2.598128141e-16 -1.685226134e-16)
(10 -1.034392069e-16 -5.852539329e-16)
(10 1.246469304e-16 -3.343412713e-16)
(10 -2.971615485e-16 6.606531981e-16)
(10 -4.586968817e-16 4.824734948e-16)
(10 6.128141641e-17 5.702353156e-16)
(10 -1.742270629e-16 2.558636753e-16)
(10 -3.237243035e-16 7.673239437e-18)
(10 2.662867896e-16 2.076106371e-16)
(10 -4.499986292e-16 1.037668325e-16)
(10 -2.355142459e-17 -1.947541158e-16)
(10 -1.318333995e-16 3.303921551e-15)
)
;

boundaryField
{
    left
    {
        type            dirichlet;
        value           uniform (4 0 0);
    }
    right
    {
        type            dirichlet;
        value           uniform (4 0 0);
    }
    sides
    {
        type            empty;
    }
}


// ************************************************************************* //
