/*--------------------------------*- C++ -*----------------------------------*\
| =========                 |                                                 |
| \\      /  F ield         | foam-extend: Open Source CFD                    |
|  \\    /   O peration     | Version:     4.1                                |
|   \\  /    A nd           | Web:         http://www.foam-extend.org         |
|    \\/     M anipulation  |                                                 |
\*---------------------------------------------------------------------------*/
FoamFile
{
    version     2.0;
    format      ascii;
    class       cellScalarField;
    location    "26.2";
    object      T;
}
// * * * * * * * * * * * * * * * * * * * * * * * * * * * * * * * * * * * * * //

dimensions      [0 0 0 0 1 0 0];

internalField   nonuniform 
100
(
(4 -5.703630593e-17 1.624202108e-17)
(4 7.379681634e-18 3.528041007e-17)
(4 -5.398354945e-17 1.626333914e-16)
(4 -6.40623147e-17 9.596722088e-17)
(4 -5.815126802e-17 2.235793857e-16)
(4 -4.794516373e-16 -2.415175979e-16)
(4 3.435328264e-16 -1.783886458e-16)
(4 -1.140309441e-16 -3.278897424e-16)
(4 9.761430802e-16 -1.580749902e-16)
(4 -1.475254029e-15 1.765797219e-17)
(4 1.398162463e-16 9.201431939e-17)
(4 1.702939712e-15 1.813049373e-16)
(4 -1.401259176e-15 1.743320358e-16)
(4 9.666932515e-16 -4.001888283e-18)
(4 -1.193452754e-15 1.919520507e-16)
(4 7.83735481e-16 -2.776937141e-16)
(4 -3.275900704e-16 1.750672417e-16)
(4 1.553852755e-17 2.321214797e-16)
(4 1.571748082e-17 -2.204210463e-18)
(4 3.071309514e-18 5.981252015e-17)
(4 -1.152760476e-16 -3.046858599e-17)
(4 2.092491507e-16 -4.73665876e-17)
(4 -1.496587908e-16 -4.944185167e-17)
(4 1.198474907e-16 1.456004185e-16)
(4 -1.440128623e-16 3.745072195e-17)
(4 -1.948686942e-16 1.698943705e-16)
(4 1.389419976e-16 1.212011533e-16)
(4 -2.71108205e-16 -4.864901373e-17)
(4 6.905733099e-16 1.212280304e-15)
(4 1.986820142e-14 1.083660648e-14)
(4 2.452044917e-13 1.314493187e-13)
(4 2.871898153e-12 1.496296561e-12)
(4 3.132219169e-11 1.569182806e-11)
(4 3.150426265e-10 1.51005188e-10)
(4.000000003 2.901707577e-09 1.322155771e-09)
(4.000000025 2.429145762e-08 1.045491433e-08)
(4.000000197 1.834700396e-07 7.395704639e-08)
(4.000001393 1.237038384e-06 4.614217287e-07)
(4.000008746 7.347745735e-06 2.501171548e-06)
(4.000048351 3.800408078e-05 1.165076721e-05)
(4.000233685 0.0001699824514 4.639102894e-05)
(4.000984614 0.0006561795109 0.0001577865336)
(4.003620314 0.002189957085 0.0004593337938)
(4.011658587 0.006343952254 0.001148038013)
(4.033054308 0.01603241026 0.002470957451)
(4.083011001 0.03554165439 0.004588993327)
(4.185869904 0.06949782285 0.007353166428)
(4.373590882 0.1205077002 0.01012709427)
(4.678769694 0.1862360959 0.01185742302)
(5.122784824 0.257739214 0.01148666732)
(5.703484705 0.3208442207 0.008538622172)
(6.388982697 0.3607525945 0.003500027719)
(7.12221257 0.3678036675 -0.002301602089)
(7.835445623 0.3412718057 -0.007284979269)
(8.468537455 0.2891720926 -0.01030468274)
(8.982996386 0.2244890862 -0.01104158996)
(9.366893757 0.1601601958 -0.009938300484)
(9.630724999 0.1053188786 -0.00782353199)
(9.798177429 0.06401220842 -0.005500231537)
(9.89659336 0.03605651071 -0.003497936317)
(9.950290935 0.01887034413 -0.002030127008)
(9.977556976 0.009198517681 -0.00108236616)
(9.990471853 0.004186235502 -0.0005328872865)
(9.996191177 0.001782728712 -0.0002433288775)
(9.998564386 0.0007119594236 -0.0001034360524)
(9.999489047 0.0002672100653 -4.106788606e-05)
(9.999828024 9.444207197e-05 -1.527473179e-05)
(9.999945179 3.149565408e-05 -5.336574812e-06)
(9.999983424 9.929708382e-06 -1.755724662e-06)
(9.999995239 2.964991459e-06 -5.452149089e-07)
(9.999998699 8.400106823e-07 -1.601571273e-07)
(9.999999661 2.261870204e-07 -4.459511507e-08)
(9.999999916 5.798206172e-08 -1.179336781e-08)
(9.99999998 1.417293057e-08 -2.967580119e-09)
(9.999999995 3.308557582e-09 -7.117811806e-10)
(9.999999999 7.387129224e-10 -1.630045663e-10)
(10 1.579766391e-10 -3.569826091e-11)
(10 3.240855773e-11 -7.487253191e-12)
(10 6.383936862e-12 -1.507767701e-12)
(10 1.205981883e-12 -2.915067695e-13)
(10 2.209157804e-13 -5.332047034e-14)
(10 4.070345849e-14 -9.916174283e-15)
(10 9.084081454e-15 -1.871142263e-15)
(10 -7.753935793e-16 1.022823231e-15)
(10 -1.383142802e-16 8.026174285e-17)
(10 1.498684044e-16 -3.808147116e-16)
(10 1.464408374e-16 -1.21230239e-18)
(10 -1.397020022e-16 1.691212445e-16)
(10 2.864582763e-16 2.957643316e-16)
(10 -3.444336697e-16 3.075757568e-16)
(10 1.841460486e-16 4.878438043e-17)
(10 3.944382502e-17 -1.213429305e-16)
(10 -3.610205859e-16 4.023482627e-17)
(10 2.760782491e-16 -4.047828903e-16)
(10 4.420534294e-17 1.279936025e-16)
(10 -4.599609596e-16 1.89245225e-16)
(10 3.62149845e-16 -3.038271283e-16)
(10 1.449802362e-16 6.347007172e-16)
(10 1.564902838e-16 6.061228828e-18)
(10 -2.147812755e-15 3.806732283e-15)
)
;

boundaryField
{
    left
    {
        type            dirichlet;
        value           uniform (4 0 0);
    }
    right
    {
        type            dirichlet;
        value           uniform (4 0 0);
    }
    sides
    {
        type            empty;
    }
}


// ************************************************************************* //
