/*--------------------------------*- C++ -*----------------------------------*\
| =========                 |                                                 |
| \\      /  F ield         | foam-extend: Open Source CFD                    |
|  \\    /   O peration     | Version:     4.1                                |
|   \\  /    A nd           | Web:         http://www.foam-extend.org         |
|    \\/     M anipulation  |                                                 |
\*---------------------------------------------------------------------------*/
FoamFile
{
    version     2.0;
    format      ascii;
    class       cellScalarField;
    location    "32.4";
    object      T;
}
// * * * * * * * * * * * * * * * * * * * * * * * * * * * * * * * * * * * * * //

dimensions      [0 0 0 0 1 0 0];

internalField   nonuniform 
100
(
(4 -5.703630593e-17 1.624202108e-17)
(4 -1.738703434e-16 3.085780043e-16)
(4 5.158621825e-17 -2.247967062e-16)
(4 2.350924064e-17 8.27002575e-18)
(4 1.15393344e-17 1.537433767e-16)
(4 -6.094795364e-16 -9.194567075e-17)
(4 4.735502387e-16 -2.278993149e-19)
(4 -5.080033519e-16 1.531210603e-16)
(4 1.057126363e-15 4.179951197e-17)
(4 -1.346035323e-15 3.667519022e-16)
(4 2.954795086e-16 -6.19716285e-17)
(4 -1.910534367e-16 1.738644988e-16)
(4 8.786358016e-16 -3.530973986e-17)
(4 -5.675740154e-17 -1.310418713e-16)
(4 6.109135485e-16 2.638182473e-16)
(4 -8.427409536e-16 7.83943861e-17)
(4 8.553395816e-16 -1.14671553e-16)
(4 -7.409631516e-16 -1.186899386e-16)
(4 8.804566233e-16 9.646759014e-17)
(4 -5.658470269e-16 -1.150196285e-16)
(4 4.367132841e-16 1.757629584e-17)
(4 -1.603975086e-16 3.566047773e-16)
(4 5.97016924e-17 -1.145455985e-16)
(4 -6.263685934e-17 2.827962654e-17)
(4 7.321886831e-17 8.967890716e-17)
(4 -1.634354658e-17 1.414685125e-16)
(4 -5.824647167e-17 2.081261732e-16)
(4 -1.760794594e-16 1.744652524e-16)
(4 -3.306612843e-17 -8.609754746e-17)
(4 2.178345354e-16 1.515515123e-17)
(4 2.38093155e-16 -1.636384513e-16)
(4 2.171503374e-17 -1.393863628e-16)
(4 -1.277544239e-16 1.06192507e-16)
(4 -4.110880277e-16 -3.236403903e-17)
(4 9.173732527e-16 -4.658285938e-17)
(4 -8.23515968e-16 2.956861534e-17)
(4 5.349799318e-16 3.160431913e-17)
(4 -4.13641166e-16 -2.159802758e-17)
(4 4.759495397e-16 9.033883479e-16)
(4 2.298840248e-14 1.196939844e-14)
(4 2.429626021e-13 1.198794499e-13)
(4 2.381979966e-12 1.132213495e-12)
(4 2.18066163e-11 9.960625711e-12)
(4 1.850672423e-10 8.081416034e-11)
(4.000000002 1.447634584e-09 6.01217157e-10)
(4.000000011 1.037621348e-08 4.073362841e-09)
(4.000000077 6.769181679e-08 2.493255791e-08)
(4.000000477 3.989659425e-07 1.367327981e-07)
(4.000002659 2.109788222e-06 6.671384299e-07)
(4.00001332 9.958375893e-06 2.882292576e-06)
(4.000059803 4.183341973e-05 1.100137262e-05)
(4.000240398 0.000156291748 3.708720106e-05)
(4.000865872 0.0005198422689 0.0001105456576)
(4.002800305 0.00154273995 0.0002918720961)
(4.008156467 0.004097121043 0.00068401888)
(4.021474456 0.009769609339 0.001425530406)
(4.05131033 0.02098955158 0.0026453053)
(4.111734976 0.04077335244 0.004372012652)
(4.222731536 0.07185941088 0.006426624411)
(4.408267722 0.1152810279 0.008366397428)
(4.691354855 0.1688761863 0.009554775649)
(5.086786842 0.2265781142 0.00937620272)
(5.593904989 0.2792176249 0.007517529895)
(6.19258805 0.3168953962 0.004167042015)
(6.844880391 0.3320860368 3.584519828e-06)
(7.502383959 0.3221106188 -0.004038305659)
(8.11694856 0.2898588732 -0.007111296497)
(8.650784325 0.2425248138 -0.00873453032)
(9.082634864 0.1890741574 -0.008889029028)
(9.408637671 0.1376239866 -0.007921409749)
(9.638735421 0.09371003122 -0.006341949621)
(9.790865559 0.05980251779 -0.004628211887)
(9.885251853 0.03583239155 -0.003107611494)
(9.940300277 0.0201933759 -0.001932522516)
(9.970531046 0.01072129236 -0.001118592576)
(9.986188616 0.005371491124 -0.000605057378)
(9.993849005 0.002543514749 -0.0003068562121)
(9.997394595 0.001140056981 -0.0001463255221)
(9.998949405 0.0004844101298 -6.577142224e-05)
(9.999596309 0.0001953965721 -2.79293104e-05)
(9.999852038 7.492772783e-05 -1.122732833e-05)
(9.999948218 2.735128943e-05 -4.280596704e-06)
(9.999982679 9.516865803e-06 -1.550622075e-06)
(9.999994456 3.160431629e-06 -5.345598759e-07)
(9.999998301 1.002940658e-06 -1.756508888e-07)
(9.999999501 3.045128599e-07 -5.509446733e-08)
(9.999999859 8.856218232e-08 -1.651880809e-08)
(9.999999962 2.470015904e-08 -4.740718308e-09)
(9.99999999 6.613676005e-09 -1.303954525e-09)
(9.999999998 1.701946754e-09 -3.441640385e-10)
(9.999999999 4.213762356e-10 -8.727200428e-11)
(10 1.004724416e-10 -2.128332859e-11)
(10 2.309424186e-11 -4.998966169e-12)
(10 5.121798698e-12 -1.130729108e-12)
(10 1.096083006e-12 -2.478547565e-13)
(10 2.206293977e-13 -5.227856781e-14)
(10 4.721050816e-14 -9.361017485e-15)
(10 1.572978228e-14 -1.875865554e-15)
(10 2.600296555e-15 -1.842467788e-15)
(10 3.056319064e-17 3.333661619e-15)
)
;

boundaryField
{
    left
    {
        type            dirichlet;
        value           uniform (4 0 0);
    }
    right
    {
        type            dirichlet;
        value           uniform (4 0 0);
    }
    sides
    {
        type            empty;
    }
}


// ************************************************************************* //
