/*--------------------------------*- C++ -*----------------------------------*\
| =========                 |                                                 |
| \\      /  F ield         | foam-extend: Open Source CFD                    |
|  \\    /   O peration     | Version:     4.1                                |
|   \\  /    A nd           | Web:         http://www.foam-extend.org         |
|    \\/     M anipulation  |                                                 |
\*---------------------------------------------------------------------------*/
FoamFile
{
    version     2.0;
    format      ascii;
    class       cellScalarField;
    location    "34.8";
    object      T;
}
// * * * * * * * * * * * * * * * * * * * * * * * * * * * * * * * * * * * * * //

dimensions      [0 0 0 0 1 0 0];

internalField   nonuniform 
100
(
(4 -5.703630593e-17 1.624202108e-17)
(4 -2.270188898e-17 3.514713548e-17)
(4 -1.295319138e-17 1.541355532e-17)
(4 -1.196330187e-17 -7.210407608e-17)
(4 3.503251796e-17 -1.967084953e-16)
(4 -2.119664354e-16 2.93972113e-17)
(4 3.224985664e-16 -2.751618121e-17)
(4 -3.867082265e-16 -5.605982056e-18)
(4 8.208304755e-16 -1.167011502e-16)
(4 -1.088512442e-15 2.182769408e-16)
(4 -2.0265545e-16 -1.293174582e-17)
(4 1.247713106e-16 -5.316319732e-17)
(4 7.11517976e-16 1.343330981e-17)
(4 -5.650324499e-17 1.071407054e-16)
(4 3.587857904e-16 2.495964268e-16)
(4 -9.099226117e-16 -3.459287796e-16)
(4 9.378355762e-16 -1.394526845e-16)
(4 -7.687810218e-16 -4.280801368e-17)
(4 7.830902488e-16 -1.222031245e-16)
(4 -7.316315395e-16 -3.027574956e-16)
(4 6.873648019e-16 -3.216300053e-16)
(4 -4.816642256e-16 3.513326749e-16)
(4 1.335829705e-16 -1.577064617e-16)
(4 -1.360953309e-16 8.898823347e-17)
(4 9.963303996e-17 -3.169590758e-17)
(4 8.076251404e-17 8.206331406e-17)
(4 -8.372193809e-17 4.193234746e-17)
(4 -2.266151313e-16 -6.301058006e-17)
(4 -2.074204907e-16 -6.021400189e-17)
(4 3.274691338e-16 1.133664625e-16)
(4 -6.158817937e-17 -8.094322748e-17)
(4 4.345283974e-17 1.341151292e-18)
(4 1.406492331e-16 -1.682199685e-17)
(4 -5.673934417e-16 5.7655799e-17)
(4 8.872056257e-16 9.645735095e-17)
(4 -8.306386975e-16 -1.641541149e-16)
(4 4.790273735e-16 -2.041821168e-16)
(4 -4.158819938e-16 1.076051312e-16)
(4 3.582900186e-16 -1.637937277e-16)
(4 2.752507219e-16 1.482476487e-16)
(4 -2.368371756e-16 -5.456929695e-17)
(4 1.150021861e-16 9.060921452e-17)
(4 1.741794886e-15 9.969203024e-16)
(4 2.817641711e-14 1.51218166e-14)
(4 2.920918702e-13 1.379632546e-13)
(4 2.673576943e-12 1.227560828e-12)
(4 2.294516792e-11 1.010080698e-11)
(4 1.826324859e-10 7.684280834e-11)
(4.000000001 1.342439319e-09 5.37006341e-10)
(4.00000001 9.060789374e-09 3.425632626e-09)
(4.000000065 5.58170735e-08 1.981053111e-08)
(4.000000383 3.119275266e-07 1.031838888e-07)
(4.000002032 1.573044848e-06 4.815416193e-07)
(4.000009762 7.131995339e-06 2.006840209e-06)
(4.00004233 2.901504773e-05 7.457575901e-06)
(4.00016562 0.0001058895862 2.471050257e-05)
(4.000585175 0.0003470089992 7.308012987e-05)
(4.001870589 0.001023110264 0.000193212519)
(4.005424051 0.002720740112 0.0004574688182)
(4.014310871 0.006544328412 0.0009716342311)
(4.034473653 0.01428076562 0.001853588706)
(4.076095389 0.02835663049 0.003177907499)
(4.154493893 0.05138829144 0.004893768432)
(4.289619747 0.08523781974 0.006752778055)
(4.503316186 0.1297668059 0.008303339771)
(4.814217435 0.1818069168 0.008993700106)
(5.231377542 0.2350022029 0.008370259166)
(5.748838439 0.2809282734 0.00628955921)
(6.343593634 0.3112995824 0.003031528567)
(6.978384854 0.3204587223 -0.0007598562093)
(7.608846888 0.3071026483 -0.004291668931)
(8.192676463 0.274523895 -0.006891643367)
(8.697732377 0.2293464436 -0.008207784805)
(9.106627846 0.1793969898 -0.008261595308)
(9.416988505 0.1316176682 -0.007360159097)
(9.638214361 0.09072455217 -0.005934806042)
(9.786543592 0.05885130589 -0.004387757988)
(9.880239697 0.03598258639 -0.002999585757)
(9.936084119 0.02076802304 -0.001907521042)
(9.96753552 0.01133195071 -0.001133565305)
(9.984297326 0.005853846114 -0.0006317926407)
(9.992762242 0.002866861871 -0.0003312593678)
(9.996818525 0.001332862285 -0.0001638154715)
(9.998665259 0.0005890395484 -7.658185296e-05)
(9.999465097 0.0002477628427 -3.391323617e-05)
(9.999795055 9.931099136e-05 -1.4252577e-05)
(9.99992486 3.79796009e-05 -5.694337185e-06)
(9.999973615 1.387407818e-05 -2.16626507e-06)
(9.999991118 4.846787391e-06 -7.858660449e-07)
(9.999997131 1.620997972e-06 -2.722496003e-07)
(9.99999911 5.195887751e-07 -9.018814785e-08)
(9.999999735 1.59787884e-07 -2.8605478e-08)
(9.999999924 4.719336531e-08 -8.69752914e-09)
(9.999999979 1.340003006e-08 -2.538029019e-09)
(9.999999994 3.661357294e-09 -7.116054049e-10)
(9.999999999 9.63609899e-10 -1.919069725e-10)
(10 2.445044837e-10 -4.983057083e-11)
(10 5.986751721e-11 -1.247244873e-11)
(10 1.415437502e-11 -3.010534327e-12)
(10 3.236383838e-12 -6.986283875e-13)
)
;

boundaryField
{
    left
    {
        type            dirichlet;
        value           uniform (4 0 0);
    }
    right
    {
        type            dirichlet;
        value           uniform (4 0 0);
    }
    sides
    {
        type            empty;
    }
}


// ************************************************************************* //
