/*--------------------------------*- C++ -*----------------------------------*\
| =========                 |                                                 |
| \\      /  F ield         | foam-extend: Open Source CFD                    |
|  \\    /   O peration     | Version:     4.1                                |
|   \\  /    A nd           | Web:         http://www.foam-extend.org         |
|    \\/     M anipulation  |                                                 |
\*---------------------------------------------------------------------------*/
FoamFile
{
    version     2.0;
    format      ascii;
    class       cellScalarField;
    location    "28";
    object      T;
}
// * * * * * * * * * * * * * * * * * * * * * * * * * * * * * * * * * * * * * //

dimensions      [0 0 0 0 1 0 0];

internalField   nonuniform 
100
(
(4 -5.703630593e-17 1.624202108e-17)
(4 -9.211328299e-17 -2.36594926e-17)
(4 6.633953819e-17 -7.36891376e-17)
(4 -1.014205418e-16 -1.186347285e-16)
(4 1.006785097e-16 1.994123456e-17)
(4 -3.493479511e-16 8.163405648e-17)
(4 4.432184104e-16 4.400528306e-17)
(4 -3.284270599e-16 7.330560851e-17)
(4 6.528460463e-16 2.440673258e-16)
(4 -1.395097321e-15 -4.213156334e-17)
(4 2.34164383e-17 -3.951110933e-17)
(4 4.245198885e-16 -4.600871272e-17)
(4 4.944418593e-16 -5.248910335e-17)
(4 1.195813021e-16 -1.56642134e-16)
(4 -1.168216905e-16 3.066932981e-17)
(4 2.5515758e-16 9.005751122e-18)
(4 5.049330765e-17 -4.063105494e-17)
(4 2.210786345e-17 1.742120852e-16)
(4 -4.095209546e-16 -3.762381999e-16)
(4 8.960483478e-16 4.217479044e-17)
(4 -7.805402152e-16 -2.376988742e-16)
(4 9.471247282e-16 -8.570854182e-17)
(4 -9.782757025e-16 -1.009677652e-16)
(4 1.002891957e-15 -4.054388186e-17)
(4 -8.593636054e-16 1.81475937e-16)
(4 4.768670909e-16 -1.673375591e-16)
(4 -4.120501098e-16 2.307018159e-16)
(4 -1.438809839e-19 -8.860631437e-17)
(4 -4.115425647e-16 -8.762836194e-17)
(4 4.045541293e-16 1.119055755e-16)
(4 -5.097716535e-17 8.400824343e-17)
(4 6.093860798e-16 1.217856226e-15)
(4 2.671597449e-14 1.510017524e-14)
(4 3.256249974e-13 1.695347632e-13)
(4 3.571006818e-12 1.800752412e-12)
(4 3.654666528e-11 1.771749882e-11)
(4 3.452802988e-10 1.599841591e-10)
(4.000000003 2.990805544e-09 1.316739635e-09)
(4.000000025 2.359300734e-08 9.805457886e-09)
(4.000000185 1.681919482e-07 6.541268261e-08)
(4.000001237 1.072647547e-06 3.860693416e-07)
(4.000007383 6.053359137e-06 1.992510746e-06)
(4.000039018 2.996589631e-05 8.920594393e-06)
(4.00018171 0.0001294874549 3.451831805e-05)
(4.00074437 0.0004878791922 0.0001154115339)
(4.00268538 0.001605505043 0.0003340162847)
(4.008559057 0.004630340549 0.0008390089661)
(4.024210518 0.01175449869 0.001834030788)
(4.061096658 0.02639002213 0.003495676751)
(4.13833163 0.05265030145 0.005812154185)
(4.282666199 0.09378163486 0.008411883336)
(4.52445116 0.1498069446 0.01052510052)
(4.889035344 0.215516233 0.0111991762)
(5.38583896 0.2803437312 0.009732295456)
(5.999884643 0.3309705372 0.006096806637)
(6.690701236 0.3558795209 0.001067839521)
(7.400444615 0.349679595 -0.004062078336)
(8.068430839 0.3149552981 -0.008029181884)
(8.646048418 0.2608097422 -0.01008928799)
(9.106235405 0.1991197998 -0.0102029068)
(9.444927545 0.1405340091 -0.008882272222)
(9.675791329 0.09192471767 -0.006858947551)
(9.821888476 0.05586329666 -0.00477679955)
(9.907923423 0.03161404487 -0.003032334788)
(9.955176244 0.01669816655 -0.001767828197)
(9.979433208 0.008249583535 -0.0009519354286)
(9.99109603 0.003820103459 -0.0004756354381)
(9.996358638 0.001661390867 -0.0002213663603)
(9.998591545 0.0006799330923 -9.62864636e-05)
(9.999484086 0.0002623459028 -3.925686775e-05)
(9.9998208 9.560610832e-05 -1.504244784e-05)
(9.999940898 3.296585636e-05 -5.430397865e-06)
(9.999981467 1.077333628e-05 -1.851117271e-06)
(9.999994467 3.342408295e-06 -5.970887761e-07)
(9.999998425 9.860202151e-07 -1.826016833e-07)
(9.999999572 2.770133912e-07 -5.304468619e-08)
(9.999999889 7.422573693e-08 -1.46628514e-08)
(9.999999972 1.899663016e-08 -3.863360864e-09)
(9.999999993 4.650244193e-09 -9.718056154e-10)
(9.999999998 1.090283879e-09 -2.337344562e-10)
(10 2.451556406e-10 -5.383088511e-11)
(10 5.293447295e-11 -1.188910982e-11)
(10 1.098528501e-11 -2.52120296e-12)
(10 2.192122051e-12 -5.141358537e-13)
(10 4.235257898e-13 -1.006646069e-13)
(10 8.041884721e-14 -1.884984966e-14)
(10 1.539658198e-14 -2.539614996e-15)
(10 3.848132047e-15 -2.517793716e-15)
(10 -1.027076218e-16 3.674374067e-16)
(10 -4.239240696e-16 -2.629397133e-16)
(10 1.164810828e-15 -2.628537668e-16)
(10 -1.019795447e-15 5.087204265e-16)
(10 -5.960127478e-16 2.075287125e-16)
(10 -1.442444951e-16 4.217020291e-18)
(10 2.662344343e-16 -4.42515015e-16)
(10 2.917363214e-16 -3.767032865e-16)
(10 4.654352649e-16 -1.927182338e-16)
(10 2.944765935e-16 -1.606789797e-16)
(10 -6.935213714e-18 2.29815771e-16)
(10 -1.132475231e-15 2.866550073e-15)
)
;

boundaryField
{
    left
    {
        type            dirichlet;
        value           uniform (4 0 0);
    }
    right
    {
        type            dirichlet;
        value           uniform (4 0 0);
    }
    sides
    {
        type            empty;
    }
}


// ************************************************************************* //
