/*--------------------------------*- C++ -*----------------------------------*\
| =========                 |                                                 |
| \\      /  F ield         | foam-extend: Open Source CFD                    |
|  \\    /   O peration     | Version:     4.1                                |
|   \\  /    A nd           | Web:         http://www.foam-extend.org         |
|    \\/     M anipulation  |                                                 |
\*---------------------------------------------------------------------------*/
FoamFile
{
    version     2.0;
    format      ascii;
    class       cellScalarField;
    location    "19.4";
    object      T;
}
// * * * * * * * * * * * * * * * * * * * * * * * * * * * * * * * * * * * * * //

dimensions      [0 0 0 0 1 0 0];

internalField   nonuniform 
100
(
(4 -5.703630593e-17 1.624202108e-17)
(4 -7.236184666e-17 3.036065334e-17)
(4 2.174010142e-16 -1.340441023e-16)
(4 -9.102844515e-17 -3.364819545e-17)
(4 6.953738097e-17 -3.244594044e-17)
(4 -5.023132736e-16 1.100384095e-16)
(4 3.722193379e-16 -3.324854117e-17)
(4 -1.056820953e-16 -1.098225683e-16)
(4 9.593800612e-16 -3.863232441e-17)
(4 -1.625487069e-15 1.887125161e-16)
(4 -2.774559072e-17 1.290715525e-16)
(4 9.796222734e-16 -5.922870405e-17)
(4 -5.459443955e-16 3.041524573e-17)
(4 1.780746946e-16 3.225909709e-17)
(4 1.806579779e-16 5.98765385e-17)
(4 9.948546498e-16 3.612957866e-16)
(4 1.256536123e-15 -6.881923382e-16)
(4 5.177052055e-16 3.830746587e-16)
(4 4.746152308e-15 3.511517294e-15)
(4 1.079772919e-13 6.542075809e-14)
(4 1.688999132e-12 1.013470063e-12)
(4 2.465306258e-11 1.401406282e-11)
(4 3.205905915e-10 1.748208772e-10)
(4.000000004 3.822749972e-09 1.997695513e-09)
(4.000000039 4.111939598e-08 2.021443058e-08)
(4.000000388 3.916066499e-07 1.804558775e-07)
(4.000003409 3.302650776e-06 1.414424619e-06)
(4.000026335 2.423133237e-05 9.400870193e-06)
(4.000174662 0.0001495807644 5.105365463e-05)
(4.000971548 0.0007581699593 0.0002224075834)
(4.00448443 0.00313101245 0.0007752601381)
(4.0171925 0.01057327013 0.002172958436)
(4.055173714 0.02945884329 0.004928286634)
(4.14984161 0.06843985794 0.009080467902)
(4.348588398 0.1339974141 0.01356816112)
(4.703427105 0.2233067789 0.01621643704)
(5.247017619 0.3196584853 0.01483250785)
(5.967420537 0.3963238911 0.008834898256)
(6.799543431 0.4288148223 1.485842299e-05)
(7.643033453 0.4076977503 -0.008392637143)
(8.398104295 0.3427740967 -0.01362406568)
(8.998506353 0.2563455413 -0.01476498831)
(9.424890392 0.1714603427 -0.01273373826)
(9.69670476 0.1030964674 -0.009264205547)
(9.852996513 0.05599614326 -0.005849957639)
(9.934421699 0.02759845245 -0.003261611155)
(9.973023514 0.01239653388 -0.001624710309)
(9.989744458 0.005095535783 -0.000729560084)
(9.996388224 0.001924220224 -0.0002974494155)
(9.99881869 0.0006700674278 -0.0001107818541)
(9.999640246 0.0002159391715 -3.788994928e-05)
(9.999897724 6.462113312e-05 -1.195709057e-05)
(9.999972786 1.801617704e-05 -3.496440767e-06)
(9.999993206 4.694038278e-06 -9.51094599e-07)
(9.999998404 1.146346783e-06 -2.41538606e-07)
(9.999999647 2.631484828e-07 -5.746089506e-08)
(9.999999926 5.693427539e-08 -1.284523136e-08)
(9.999999985 1.163996622e-08 -2.706258663e-09)
(9.999999997 2.254229487e-09 -5.388278322e-10)
(10 4.145031716e-10 -1.016509724e-10)
(10 7.2525549e-11 -1.821376703e-11)
(10 1.210195442e-11 -3.106408207e-12)
(10 1.926085409e-12 -5.068464471e-13)
(10 2.914840374e-13 -7.81775424e-14)
(10 4.217266355e-14 -1.075285986e-14)
(10 8.853236713e-15 -1.868787255e-15)
(10 -5.040285967e-16 -5.694503605e-16)
(10 8.200417591e-16 -1.329539965e-15)
(10 5.578480597e-17 8.424939907e-17)
(10 -3.717952475e-16 5.581750215e-16)
(10 -4.317380658e-16 -1.890222847e-16)
(10 -7.405844996e-17 -4.677851096e-16)
(10 -2.695117697e-17 2.811536276e-16)
(10 5.269023702e-16 -3.363136553e-16)
(10 -2.905581609e-16 3.264412794e-16)
(10 1.136169412e-16 2.494951113e-16)
(10 -2.153159532e-16 -5.457833571e-16)
(10 1.625781864e-16 -1.145843766e-16)
(10 4.707459453e-17 -2.708272878e-16)
(10 3.958071346e-16 4.741931213e-16)
(10 -3.881426067e-16 7.444354945e-17)
(10 1.369507407e-16 -6.478392495e-18)
(10 -2.185224307e-16 4.711245008e-16)
(10 -2.886883583e-16 5.655199645e-17)
(10 -1.391657282e-16 1.397117053e-16)
(10 -4.615348963e-16 2.240996526e-16)
(10 -1.500030436e-16 4.847624586e-16)
(10 -3.181359707e-16 4.205172015e-16)
(10 -1.807451987e-16 4.399553422e-16)
(10 -1.591202718e-16 1.547969009e-16)
(10 2.501602036e-16 3.664421599e-17)
(10 -3.511034664e-16 5.057801382e-16)
(10 -2.088645432e-16 -8.549483588e-17)
(10 3.455159055e-16 3.290477898e-16)
(10 -1.830031537e-16 1.713676612e-16)
(10 1.075354263e-16 2.657559784e-16)
(10 -1.443372714e-16 -3.724540959e-18)
(10 3.785816887e-17 -1.523606133e-17)
(10 -4.170537308e-16 -8.710274262e-17)
(10 -3.600213538e-16 3.205550588e-15)
)
;

boundaryField
{
    left
    {
        type            dirichlet;
        value           uniform (4 0 0);
    }
    right
    {
        type            dirichlet;
        value           uniform (4 0 0);
    }
    sides
    {
        type            empty;
    }
}


// ************************************************************************* //
