/*--------------------------------*- C++ -*----------------------------------*\
| =========                 |                                                 |
| \\      /  F ield         | foam-extend: Open Source CFD                    |
|  \\    /   O peration     | Version:     4.1                                |
|   \\  /    A nd           | Web:         http://www.foam-extend.org         |
|    \\/     M anipulation  |                                                 |
\*---------------------------------------------------------------------------*/
FoamFile
{
    version     2.0;
    format      ascii;
    class       cellScalarField;
    location    "5";
    object      T;
}
// * * * * * * * * * * * * * * * * * * * * * * * * * * * * * * * * * * * * * //

dimensions      [0 0 0 0 1 0 0];

internalField   nonuniform 
100
(
(4 -1.157590301e-10 -1.201715024e-10)
(4.000000002 8.521765988e-09 8.347201797e-09)
(4.000000066 -5.371426863e-08 -1.078033838e-07)
(4.000001823 4.396252891e-06 5.528627936e-06)
(4.000088203 9.45107985e-05 2.512533867e-05)
(4.000919363 0.001003269407 0.0009740398873)
(4.019838333 0.0251204564 0.0129955586)
(4.196743143 0.1789950366 0.04772406864)
(4.887775881 0.5310921959 0.06342747456)
(6.275190452 0.8212669194 0.01454826807)
(7.898638048 0.7509958004 -0.04382651199)
(9.103483713 0.4427775572 -0.05199643435)
(9.708800509 0.1801667353 -0.02956863382)
(9.92634697 0.05359597734 -0.01079199132)
(9.985071979 0.01225077345 -0.00283367969)
(9.997503863 0.002244777485 -0.0005738410272)
(9.999646337 0.0003415840067 -9.415374692e-05)
(9.999956544 4.44322778e-05 -1.298794461e-05)
(9.999995277 5.058023989e-06 -1.549708287e-06)
(9.999999539 5.135991787e-07 -1.635428584e-07)
(9.999999959 4.724674216e-08 -1.553668406e-08)
(9.999999997 3.987953691e-09 -1.347725942e-09)
(10 3.121201656e-10 -1.079905507e-10)
(10 2.284867258e-11 -8.069487343e-12)
(10 1.577450377e-12 -5.6787014e-13)
(10 1.025375745e-13 -3.796041079e-14)
(10 5.396944118e-15 -2.628391398e-15)
(10 8.566996913e-16 3.958306972e-16)
(10 -1.505709549e-15 9.727309939e-17)
(10 1.70000079e-15 -3.430004716e-16)
(10 -3.420706837e-16 6.777526258e-17)
(10 3.886418729e-16 4.527662311e-16)
(10 -2.056309836e-17 3.324498413e-16)
(10 -3.9218501e-16 -4.82401089e-16)
(10 2.29682968e-16 -2.468029318e-16)
(10 -5.787452288e-17 -1.346882846e-16)
(10 -3.688739765e-16 -4.991581095e-16)
(10 -1.389725584e-16 -2.557526144e-16)
(10 2.327473683e-16 4.722520152e-16)
(10 -4.852001201e-16 4.141939235e-16)
(10 -3.393221252e-17 -2.028546221e-17)
(10 -1.212018928e-16 7.451402699e-17)
(10 -2.078313283e-16 3.386085262e-16)
(10 -3.460345285e-16 -5.482224876e-17)
(10 -4.077308335e-16 -3.072755074e-17)
(10 5.943933883e-16 -4.712290684e-16)
(10 -6.475134379e-18 1.05236753e-16)
(10 -1.593671191e-16 -5.750183036e-16)
(10 3.610322661e-16 -1.397187613e-16)
(10 -5.959907549e-17 -9.052737729e-17)
(10 3.634839453e-16 -1.278542971e-16)
(10 -1.675796112e-16 -3.525298529e-17)
(10 3.711401597e-16 3.213878139e-16)
(10 -4.577580063e-16 -7.78076163e-17)
(10 2.61971127e-16 2.944102588e-17)
(10 -1.365836193e-16 -1.744382481e-17)
(10 2.188365319e-16 -5.564608655e-16)
(10 1.000862126e-15 -5.078880228e-16)
(10 -1.354184948e-16 7.673887687e-17)
(10 -4.236895983e-18 2.400961845e-18)
(10 -1.325615648e-19 7.511991335e-20)
(10 -4.147510002e-21 2.350308647e-21)
(10 -1.297649077e-22 7.353510526e-23)
(10 -4.060009803e-24 2.300724083e-24)
(10 -1.270272518e-25 7.198373196e-26)
(10 -3.974355601e-27 2.252185608e-27)
(10 -1.243473524e-28 7.046508807e-29)
(10 -3.890508449e-30 2.204671151e-30)
(10 -1.217239909e-31 6.897848307e-32)
(10 -3.808430225e-33 2.158159109e-33)
(10 -1.191559747e-34 6.752324105e-35)
(10 -3.728083609e-36 2.112628334e-36)
(10 -1.16642136e-37 6.609870033e-38)
(10 -3.649432069e-39 2.068058123e-39)
(10 -1.141813318e-40 6.470421321e-41)
(10 -3.572439844e-42 2.024428212e-42)
(10 -1.117724433e-43 6.333914564e-44)
(10 -3.497071927e-45 1.981718763e-45)
(10 -1.094143753e-46 6.200287697e-47)
(10 -3.42329405e-48 1.939910357e-48)
(10 -1.071060555e-49 6.069479961e-50)
(10 -3.351072669e-51 1.898983985e-51)
(10 -1.048464345e-52 5.941431881e-53)
(10 -3.280374945e-54 1.858921038e-54)
(10 -1.026344847e-55 5.816085238e-56)
(10 -3.211168734e-57 1.819703301e-57)
(10 -1.004692006e-58 5.693383038e-59)
(10 -3.143422569e-60 1.781312942e-60)
(10 -9.834959756e-62 5.573269491e-62)
(10 -3.077105648e-63 1.743732507e-63)
(10 -9.627471188e-65 5.455689985e-65)
(10 -3.012187818e-66 1.706944907e-66)
(10 -9.424360014e-68 5.340591059e-68)
(10 -2.948639562e-69 1.670933417e-69)
(10 -9.225533886e-71 5.22792038e-71)
(10 -2.886431987e-72 1.635681663e-72)
(10 -9.030902402e-74 5.117626719e-74)
(10 -2.825536807e-75 1.601173617e-75)
(10 -8.840377066e-77 5.009659929e-77)
(10 -1.486084824e-15 3.850446632e-15)
)
;

boundaryField
{
    left
    {
        type            dirichlet;
        value           uniform (4 0 0);
    }
    right
    {
        type            dirichlet;
        value           uniform (4 0 0);
    }
    sides
    {
        type            empty;
    }
}


// ************************************************************************* //
