/*--------------------------------*- C++ -*----------------------------------*\
| =========                 |                                                 |
| \\      /  F ield         | foam-extend: Open Source CFD                    |
|  \\    /   O peration     | Version:     4.1                                |
|   \\  /    A nd           | Web:         http://www.foam-extend.org         |
|    \\/     M anipulation  |                                                 |
\*---------------------------------------------------------------------------*/
FoamFile
{
    version     2.0;
    format      ascii;
    class       cellScalarField;
    location    "3.5";
    object      T;
}
// * * * * * * * * * * * * * * * * * * * * * * * * * * * * * * * * * * * * * //

dimensions      [0 0 0 0 1 0 0];

internalField   nonuniform 10((4.000000083 -1.428090139e-08 -2.326460137e-07) (4.000000865 6.020765056e-06 1.354985218e-05) (4.000212142 0.0002081798232 -1.934977993e-05) (4.001701699 0.002050012451 0.003513589949) (4.068403067 0.09174556551 0.04380696115) (4.618203387 0.5076464144 0.09375118751) (6.138426877 0.9673584971 0.02525258683) (8.047004022 0.8570613776 -0.06795549301) (9.324586647 0.4169183851 -0.06426800777) (9.835756925 0.126070498 -0.02626849409));

boundaryField
{
    left
    {
        type            dirichlet;
        value           uniform (4 0 0);
    }
    right
    {
        type            dirichlet;
        value           uniform (4 0 0);
    }
    sides
    {
        type            empty;
    }
}


// ************************************************************************* //
