/*--------------------------------*- C++ -*----------------------------------*\
| =========                 |                                                 |
| \\      /  F ield         | foam-extend: Open Source CFD                    |
|  \\    /   O peration     | Version:     4.1                                |
|   \\  /    A nd           | Web:         http://www.foam-extend.org         |
|    \\/     M anipulation  |                                                 |
\*---------------------------------------------------------------------------*/
FoamFile
{
    version     2.0;
    format      ascii;
    class       cellScalarField;
    location    "42.9";
    object      T;
}
// * * * * * * * * * * * * * * * * * * * * * * * * * * * * * * * * * * * * * //

dimensions      [0 0 0 0 1 0 0];

internalField   nonuniform 
100
(
(4 -5.703630593e-17 1.624202108e-17)
(4 -2.5450338e-16 9.189188707e-17)
(4 9.849099903e-17 -1.545419453e-16)
(4 -4.980104825e-17 -1.043983316e-16)
(4 1.410105282e-16 -7.579606289e-18)
(4 -4.423537026e-16 -7.452439875e-17)
(4 4.266133494e-16 5.789960682e-17)
(4 -4.156267894e-16 3.254206202e-16)
(4 7.957378303e-16 1.495021412e-17)
(4 -1.474806372e-15 2.588758625e-17)
(4 8.662231374e-17 1.058335789e-16)
(4 -5.161870177e-17 5.654395782e-17)
(4 8.666628864e-16 -3.967515941e-17)
(4 -5.746543753e-16 2.361714981e-16)
(4 9.543682401e-17 1.379779204e-16)
(4 4.492452103e-17 -1.402266592e-16)
(4 -2.223889164e-16 1.604718677e-16)
(4 -6.292167994e-17 -2.093929355e-17)
(4 -1.762778102e-16 -1.505496504e-17)
(4 4.081675423e-17 1.724977429e-16)
(4 6.668648545e-19 8.196653384e-17)
(4 -3.409525994e-17 -9.725436915e-17)
(4 4.80755975e-17 -7.196775124e-17)
(4 -1.135658752e-16 1.206488214e-17)
(4 1.155137993e-16 1.526959376e-16)
(4 -5.00775492e-16 -4.291675165e-16)
(4 1.041901398e-15 -1.156308719e-16)
(4 -8.191065534e-16 3.666216829e-16)
(4 -6.292617139e-17 -1.3155824e-16)
(4 3.112188345e-16 1.742965248e-16)
(4 -2.164470411e-16 3.31690698e-19)
(4 1.999841059e-16 -3.554641408e-17)
(4 -2.123369505e-16 -1.086207826e-16)
(4 -4.387285517e-16 3.127080942e-16)
(4 4.29038993e-16 3.660758947e-17)
(4 -3.288477772e-16 2.035613349e-16)
(4 5.235280082e-16 5.702103247e-17)
(4 -8.168153651e-16 -8.077579511e-17)
(4 4.009868357e-16 5.860551213e-17)
(4 -4.68446258e-17 2.693987948e-16)
(4 -2.626392635e-16 -2.698104606e-17)
(4 1.214607966e-16 7.595563167e-17)
(4 -2.084352594e-16 -8.107083963e-17)
(4 -2.091986888e-16 7.542296285e-17)
(4 -4.667523615e-16 1.424177188e-17)
(4 1.001004404e-15 2.65560942e-17)
(4 -8.985465513e-16 2.054103475e-16)
(4 7.301004502e-16 -5.494954462e-17)
(4 -9.349011173e-16 2.546554477e-16)
(4 4.49798492e-16 -1.623181825e-16)
(4 3.868200182e-16 1.976948693e-17)
(4 -8.219266604e-16 -2.23085601e-16)
(4 8.963079804e-16 -3.85272464e-17)
(4 -1.090616777e-15 3.514017463e-16)
(4 8.233684295e-16 -1.552279427e-16)
(4 1.989660427e-15 7.48376212e-16)
(4 1.294092921e-14 7.10399247e-15)
(4 1.276044892e-13 5.652862152e-14)
(4 1.008597293e-12 4.246229395e-13)
(4 7.459671093e-12 3.010630901e-12)
(4 5.148622384e-11 1.988848348e-11)
(4 3.308229744e-10 1.218167055e-10)
(4.000000002 1.97157937e-09 6.890558162e-10)
(4.000000013 1.085892924e-08 3.585789126e-09)
(4.000000071 5.509684429e-08 1.711196424e-08)
(4.000000347 2.568854278e-07 7.470485074e-08)
(4.000001559 1.098722854e-06 2.978974337e-07)
(4.000006449 4.307301484e-06 1.08431289e-06)
(4.000024546 1.547608666e-05 3.602638127e-06)
(4.000086014 5.09926261e-05 1.093215987e-05)
(4.000277777 0.0001542455084 3.032558723e-05)
(4.000827975 0.0004289450708 7.698706564e-05)
(4.002282023 0.001098512902 0.0001790803055)
(4.005827633 0.002595481719 0.0003821125715)
(4.013819458 0.005668515136 0.0007486270211)
(4.030501756 0.0114656979 0.001347593538)
(4.062811686 0.02152036303 0.002229280791)
(4.120980928 0.03755269179 0.003387555263)
(4.218506575 0.06103503025 0.004721585637)
(4.371045962 0.09256437745 0.006017758607)
(4.594006789 0.1312166467 0.006972684641)
(4.899062282 0.1741569804 0.007264638532)
(5.290378094 0.2167700291 0.006656956202)
(5.761727852 0.2534177535 0.005094970913)
(6.29564132 0.2786774821 0.002752530603)
(6.865189911 0.2886802541 1.670277581e-06)
(7.438145631 0.2820869431 -0.002687646718)
(7.982420666 0.2603624188 -0.004879392319)
(8.471274985 0.2272800922 -0.006284162449)
(8.886938511 0.1878761339 -0.006813995186)
(9.221923866 0.1472415736 -0.006568735793)
(9.478097607 0.1095324272 -0.00577153339)
(9.664201809 0.07742791729 -0.004686088723)
(9.792778975 0.0520678424 -0.003546419593)
(9.87734916 0.03334413955 -0.002516531738)
(9.930359827 0.02035613172 -0.001681651037)
(9.962058167 0.01185857507 -0.001061824716)
(9.980157407 0.006598656421 -0.0006352354628)
(9.990034911 0.003510570178 -0.0003608854692)
(9.99519194 0.0017873188 -0.000195076916)
)
;

boundaryField
{
    left
    {
        type            dirichlet;
        value           uniform (4 0 0);
    }
    right
    {
        type            dirichlet;
        value           uniform (4 0 0);
    }
    sides
    {
        type            empty;
    }
}


// ************************************************************************* //
