/*--------------------------------*- C++ -*----------------------------------*\
| =========                 |                                                 |
| \\      /  F ield         | foam-extend: Open Source CFD                    |
|  \\    /   O peration     | Version:     4.0                                |
|   \\  /    A nd           | Web:         http://www.foam-extend.org         |
|    \\/     M anipulation  |                                                 |
\*---------------------------------------------------------------------------*/
FoamFile
{
    version     2.0;
    format      ascii;
    class       preCellVectorField;
    location    "1";
    object      U;
}
// * * * * * * * * * * * * * * * * * * * * * * * * * * * * * * * * * * * * * //

dimensions      [0 1 -1 0 0 0 0];

internalField   uniform ((1 0 0 0 0 0 0 0 0 0) (1 0 0 0 0 0 0 0 0 0) (0 0 0 0 0 0 0 0 0 0));
//nonuniform
//5
//(
//(1 1 1)
//(1 1 1)
//(0 0 2)
//(0 0 0)
//(1 1 1)
//);// 0 0 0 0 0 0 0);

boundaryField
{
    left
    {
       type            homogenous;
        value           uniform ((0 0 0 0 0 0 0 0 0 0) (0 0 0 0 0 0 0 0 0 0) (0 0 0 0 0 0 0 0 0 0));
        // type            dirichlet;
        // value           uniform ((5 0 0) (6 0 0) (7 0 0));
    }
    right
    {
       type            homogenous;
        value           uniform ((0 0 0 0 0 0 0 0 0 0) (0 0 0 0 0 0 0 0 0 0) (0 0 0 0 0 0 0 0 0 0));
        // type            dirichlet;
        // value           uniform ((5 0 0) (6 0 0) (7 0 0));
    }
    sides
    {
        type            homogenous;
        value           uniform ((0 0 0 0 0 0 0 0 0 0) (0 0 0 0 0 0 0 0 0 0) (0 0 0 0 0 0 0 0 0 0));
    }
//    sides2
//    {
//        type            dirichlet;
////        type            homogenous;
//        value           uniform (15 0 0);
//    }
//    sides3
//    {
//        type            empty;
//    }
//    sides1
//    {
//        type            empty;
//    }
}


// ************************************************************************* //
