/*--------------------------------*- C++ -*----------------------------------*\
| =========                 |                                                 |
| \\      /  F ield         | foam-extend: Open Source CFD                    |
|  \\    /   O peration     | Version:     4.1                                |
|   \\  /    A nd           | Web:         http://www.foam-extend.org         |
|    \\/     M anipulation  |                                                 |
\*---------------------------------------------------------------------------*/
FoamFile
{
    version     2.0;
    format      ascii;
    class       cellScalarField;
    location    "49.6";
    object      T;
}
// * * * * * * * * * * * * * * * * * * * * * * * * * * * * * * * * * * * * * //

dimensions      [0 0 0 0 1 0 0];

internalField   nonuniform 
100
(
(4 -5.703630593e-17 1.624202108e-17)
(4 -1.453438356e-16 -1.646012262e-16)
(4 3.317711677e-16 -6.930578819e-17)
(4 -1.870032648e-16 -1.966954293e-16)
(4 -1.426667958e-16 9.527252225e-17)
(4 -4.176658827e-16 6.626775105e-17)
(4 4.548738771e-16 3.491627633e-17)
(4 -3.530384121e-16 -4.493680637e-18)
(4 7.748160032e-16 -6.950866632e-17)
(4 -1.263874913e-15 5.617201561e-17)
(4 6.723018865e-17 -5.816958185e-17)
(4 4.869780061e-16 -6.032276428e-17)
(4 4.931631788e-16 -1.255118694e-16)
(4 4.231541586e-17 1.066965575e-16)
(4 -2.053809409e-16 8.829723746e-18)
(4 3.2140006e-16 -3.750951517e-17)
(4 1.506553205e-16 -8.501928399e-17)
(4 -9.691038586e-17 1.472922683e-16)
(4 -1.356318473e-16 -1.187795824e-16)
(4 -2.071708436e-17 2.321444977e-18)
(4 -3.370706398e-17 -3.517084348e-17)
(4 7.803184147e-17 1.172901021e-16)
(4 4.792460981e-17 -9.51731825e-17)
(4 -1.557845124e-17 2.238630508e-16)
(4 -6.717152581e-17 -7.397393798e-17)
(4 -5.212280722e-17 1.943597214e-16)
(4 -1.938837335e-16 -7.147849257e-17)
(4 4.372558355e-17 -1.987917038e-16)
(4 -4.175720866e-16 8.976642327e-18)
(4 4.253946719e-16 -5.25306697e-18)
(4 -9.959378849e-17 8.150346774e-17)
(4 -4.364028623e-17 2.202233401e-16)
(4 -6.597295329e-17 -4.413058347e-17)
(4 -1.998101493e-16 2.099734473e-16)
(4 2.81434356e-16 1.057287619e-16)
(4 -3.035844203e-16 9.555914521e-17)
(4 5.976712696e-16 2.052891723e-16)
(4 -7.57191094e-16 9.654825115e-17)
(4 1.389284483e-16 1.326828956e-16)
(4 -2.369450336e-16 9.205574164e-17)
(4 1.084406661e-16 5.794838193e-17)
(4 -2.580382244e-16 2.356301754e-16)
(4 9.077149024e-17 1.433889264e-16)
(4 -9.164641053e-17 -1.20392375e-16)
(4 -2.99438248e-16 -1.809958173e-16)
(4 8.29208549e-16 -1.701902351e-18)
(4 -9.215311094e-16 5.472038208e-17)
(4 8.769932385e-16 1.054571722e-16)
(4 -8.751328213e-16 -8.185532068e-17)
(4 4.098179206e-16 -8.452831294e-18)
(4 6.891600765e-17 3.064287316e-17)
(4 -1.936530326e-16 1.447592405e-16)
(4 3.103842817e-17 7.620611483e-17)
(4 -1.329335063e-16 -9.713967764e-17)
(4 -1.008896021e-16 -1.537965624e-16)
(4 1.512853609e-17 8.249436194e-17)
(4 9.534567735e-17 -1.381289899e-16)
(4 1.904337592e-16 -1.65948945e-16)
(4 1.747341717e-18 -2.407417784e-17)
(4 -1.061094739e-16 1.245174047e-16)
(4 -5.013616906e-17 -4.131524576e-17)
(4 -1.391333276e-16 1.464255548e-17)
(4 4.75324664e-17 3.11014448e-17)
(4 4.640956746e-18 -1.113156455e-16)
(4 -1.787788277e-16 -8.021082911e-18)
(4 4.215517522e-17 -6.694903637e-17)
(4 1.570171503e-15 6.102893728e-16)
(4 1.10070036e-14 4.65756603e-15)
(4 8.483752426e-14 3.437298385e-14)
(4 5.964997688e-13 2.340170202e-13)
(4 3.943442484e-12 1.488133205e-12)
(4 2.452285871e-11 8.862552783e-12)
(4 1.426813386e-10 4.925340168e-11)
(4.000000001 7.753668835e-10 2.548102891e-10)
(4.000000005 3.92650427e-09 1.224342506e-09)
(4.000000025 1.849527874e-08 5.453803181e-09)
(4.000000113 8.092334479e-08 2.249287956e-08)
(4.000000482 3.286050009e-07 8.58236128e-08)
(4.000001905 1.237970296e-06 3.028741019e-07)
(4.000007011 4.32740371e-06 9.887038157e-07)
(4.00002402 1.404227911e-05 2.986848596e-06)
(4.000076682 4.23336483e-05 8.355980814e-06)
(4.000228362 0.0001186909854 2.166590744e-05)
(4.000635217 0.0003098508935 5.211233012e-05)
(4.001652798 0.0007541528404 0.0001163800972)
(4.004029025 0.001713709023 0.0002415217183)
(4.009216913 0.003640841661 0.0004661057642)
(4.019821159 0.007242273836 0.0008369355782)
(4.040142878 0.01350751851 0.001398580052)
(4.076705051 0.02365454837 0.002174746521)
(4.13854717 0.03894854582 0.003144485587)
(4.237015095 0.06037955132 0.004221243623)
(4.38479858 0.08824275743 0.005246195214)
(4.59412529 0.1217335984 0.006005955988)
(4.874295318 0.1587152054 0.006277205837)
(5.229052547 0.1958036133 0.005888927987)
(5.654505416 0.2288324534 0.004782274604)
(6.13830393 0.2536259588 0.003044712526)
(6.660504607 0.2668810631 0.000902304284)
(7.196082244 0.2668969768 -0.001330542603)
)
;

boundaryField
{
    left
    {
        type            dirichlet;
        value           uniform (4 0 0);
    }
    right
    {
        type            dirichlet;
        value           uniform (4 0 0);
    }
    sides
    {
        type            empty;
    }
}


// ************************************************************************* //
