/*--------------------------------*- C++ -*----------------------------------*\
| =========                 |                                                 |
| \\      /  F ield         | foam-extend: Open Source CFD                    |
|  \\    /   O peration     | Version:     4.1                                |
|   \\  /    A nd           | Web:         http://www.foam-extend.org         |
|    \\/     M anipulation  |                                                 |
\*---------------------------------------------------------------------------*/
FoamFile
{
    version     2.0;
    format      ascii;
    class       cellScalarField;
    location    "44";
    object      T;
}
// * * * * * * * * * * * * * * * * * * * * * * * * * * * * * * * * * * * * * //

dimensions      [0 0 0 0 1 0 0];

internalField   nonuniform 
100
(
(4 -5.703630593e-17 1.624202108e-17)
(4 -6.26685733e-17 2.990913272e-16)
(4 -1.423234888e-16 -3.257317184e-18)
(4 2.025013448e-16 -2.569682215e-16)
(4 8.060248663e-17 -1.371834332e-16)
(4 -5.074850698e-16 1.411846966e-17)
(4 3.705856548e-16 -7.497060549e-17)
(4 -4.006708638e-16 1.523459038e-16)
(4 7.658435324e-16 1.723921495e-16)
(4 -1.513311056e-15 -3.914873814e-17)
(4 3.450735224e-17 1.519137757e-16)
(4 -1.162326336e-16 5.185325213e-17)
(4 9.812469457e-16 -1.352841499e-16)
(4 -8.571286127e-16 3.610971914e-16)
(4 8.046927848e-16 3.194945992e-17)
(4 -6.167189929e-16 3.015902054e-16)
(4 -1.035324226e-16 -6.303519147e-18)
(4 5.431563525e-17 -1.849821323e-16)
(4 -2.295446415e-16 -9.689549059e-17)
(4 8.209870808e-17 -1.352068181e-16)
(4 -2.162187544e-16 1.294837892e-16)
(4 -2.826337177e-17 -1.247532516e-17)
(4 -1.744711485e-17 1.112800691e-16)
(4 -2.419088742e-16 8.126106098e-17)
(4 1.923852357e-17 2.194608364e-18)
(4 -1.06750055e-17 3.582803269e-19)
(4 -1.357553551e-16 2.805099295e-18)
(4 -8.160085877e-17 -3.861014855e-17)
(4 -4.054273726e-16 4.124075999e-17)
(4 3.908964983e-16 4.398697164e-17)
(4 1.851744695e-16 2.380527051e-16)
(4 -8.939135877e-16 -2.290251682e-16)
(4 8.149512804e-16 -1.645307569e-16)
(4 -1.162136847e-15 3.533684778e-16)
(4 5.79958729e-16 -2.569905302e-17)
(4 -4.964069164e-16 1.840849238e-16)
(4 8.542174269e-16 6.873688579e-18)
(4 -8.429866554e-16 2.092757601e-16)
(4 4.018735937e-16 -1.225250871e-16)
(4 2.549157136e-16 -1.556344955e-16)
(4 -7.545952058e-17 2.339394569e-18)
(4 -7.793810503e-18 -3.547583856e-17)
(4 -1.196989997e-16 1.157761689e-16)
(4 -1.418319237e-16 8.225437244e-17)
(4 -1.77272395e-16 -2.364458232e-16)
(4 8.486988845e-16 -1.491950822e-16)
(4 -5.57497323e-16 -2.25235899e-16)
(4 4.60593044e-16 -1.534860267e-16)
(4 -8.701095267e-16 2.924920141e-16)
(4 5.303739328e-16 2.278779273e-17)
(4 -6.433795662e-17 3.110677134e-16)
(4 -2.168300874e-16 2.316224341e-16)
(4 1.159842853e-16 -5.667197003e-17)
(4 -1.791011344e-16 8.0216854e-17)
(4 1.451218192e-16 2.227891609e-16)
(4 -5.38816994e-16 2.049192307e-16)
(4 4.651161577e-16 1.015856146e-16)
(4 2.607922905e-15 1.096319543e-15)
(4 2.076643723e-14 9.750743575e-15)
(4 1.793762537e-13 7.7812526e-14)
(4 1.385616055e-12 5.714924314e-13)
(4 9.908770718e-12 3.919135476e-12)
(4 6.620450147e-11 2.504828592e-11)
(4 4.11943696e-10 1.48500155e-10)
(4.000000003 2.378630246e-09 8.135403075e-10)
(4.000000016 1.270344989e-08 4.104543407e-09)
(4.000000082 6.257590562e-08 1.90182639e-08)
(4.000000389 2.836988244e-07 8.076455953e-08)
(4.000001704 1.182177948e-06 3.13972015e-07)
(4.000006882 4.525089449e-06 1.116813947e-06)
(4.000025627 1.591230514e-05 3.635438699e-06)
(4.000088049 5.143854547e-05 1.083639053e-05)
(4.000279442 0.0001530277315 2.9604858e-05)
(4.000820426 0.0004195551966 7.421017577e-05)
(4.002232194 0.001061813348 0.0001708748047)
(4.005639234 0.002484882505 0.0003618027744)
(4.01325615 0.005387037703 0.0007050797442)
(4.02905918 0.01083873609 0.001265462627)
(4.059540562 0.02027618723 0.002092164035)
(4.11429607 0.03533091567 0.003184935982)
(4.206059728 0.05744440985 0.004458470691)
(4.349772309 0.08729834976 0.005723233018)
(4.560445564 0.1242071488 0.006701856981)
(4.849980218 0.165714824 0.007089556865)
(5.223600471 0.2076429695 0.006646602165)
(5.676954598 0.2447127456 0.005290556339)
(6.194964021 0.2716427701 0.003148427121)
(6.753079637 0.284405509 0.0005413299424)
(7.320845839 0.2812229553 -0.002097645533)
(7.866887998 0.2629606568 -0.004342317467)
(8.36396955 0.23280552 -0.005883996473)
(8.79280407 0.1953779621 -0.006595262616)
(9.14380765 0.1556102406 -0.006531372667)
(9.416690658 0.1177513212 -0.005879920992)
(9.618412672 0.08474778302 -0.004886136684)
(9.760350072 0.05807401999 -0.003783120039)
(9.855508899 0.03792882792 -0.002746389051)
(9.916355974 0.02363315355 -0.001877939324)
(9.953499825 0.01406234744 -0.001213733355)
(9.975166793 0.007998086883 -0.0007435300428)
)
;

boundaryField
{
    left
    {
        type            dirichlet;
        value           uniform (4 0 0);
    }
    right
    {
        type            dirichlet;
        value           uniform (4 0 0);
    }
    sides
    {
        type            empty;
    }
}


// ************************************************************************* //
