/*--------------------------------*- C++ -*----------------------------------*\
| =========                 |                                                 |
| \\      /  F ield         | foam-extend: Open Source CFD                    |
|  \\    /   O peration     | Version:     4.1                                |
|   \\  /    A nd           | Web:         http://www.foam-extend.org         |
|    \\/     M anipulation  |                                                 |
\*---------------------------------------------------------------------------*/
FoamFile
{
    version     2.0;
    format      ascii;
    class       cellScalarField;
    location    "48.9";
    object      T;
}
// * * * * * * * * * * * * * * * * * * * * * * * * * * * * * * * * * * * * * //

dimensions      [0 0 0 0 1 0 0];

internalField   nonuniform 
100
(
(4 -5.703630593e-17 1.624202108e-17)
(4 -9.889954468e-17 4.037174235e-17)
(4 1.089794036e-16 -5.94956528e-17)
(4 -1.084214225e-16 -3.017845984e-17)
(4 9.431603109e-17 -4.611916742e-17)
(4 -4.201093495e-16 -2.123465892e-17)
(4 4.301034038e-16 -3.237520197e-17)
(4 -4.830458066e-16 1.177604101e-16)
(4 7.817975132e-16 5.902982543e-17)
(4 -1.498166902e-15 -5.137312404e-17)
(4 3.881584025e-16 4.924272986e-17)
(4 -1.824367777e-16 -4.989210922e-17)
(4 9.172689704e-16 -1.465196154e-16)
(4 -4.383007116e-16 1.177476924e-16)
(4 3.052033019e-16 -2.747811106e-16)
(4 7.380200652e-17 3.214724009e-17)
(4 -1.227412848e-17 8.466199953e-18)
(4 2.337673058e-17 1.072027681e-17)
(4 2.975982487e-17 1.671883684e-16)
(4 -1.228360292e-16 7.948479418e-17)
(4 1.016420022e-16 -8.199024034e-17)
(4 -1.961049319e-16 -1.073038632e-16)
(4 1.349049963e-16 -2.272325576e-17)
(4 5.269628176e-17 3.75360674e-17)
(4 -1.275496295e-16 8.154578346e-17)
(4 -6.660167728e-17 2.103162334e-16)
(4 -2.516565183e-17 2.724400245e-17)
(4 -9.238030319e-17 2.588430453e-17)
(4 -3.391926028e-16 2.1979334e-16)
(4 3.75646584e-16 7.464731424e-17)
(4 2.751917812e-17 -9.645754487e-17)
(4 6.058986378e-17 2.754370942e-17)
(4 -7.727239339e-17 -1.386256314e-16)
(4 -4.075627732e-16 -1.742436131e-16)
(4 3.888957786e-16 -4.356895357e-17)
(4 -4.58424157e-16 4.639767241e-17)
(4 9.053165179e-16 -6.124973143e-17)
(4 -7.706027342e-16 2.309430967e-16)
(4 2.804243487e-16 1.171069829e-16)
(4 -7.473251669e-17 -4.553176482e-17)
(4 -1.573093274e-16 -1.132678824e-16)
(4 -1.228006101e-16 -4.28953434e-17)
(4 4.152843915e-18 -5.655461683e-17)
(4 -1.127451309e-17 2.495504316e-16)
(4 -4.728475264e-16 -3.848220782e-17)
(4 8.092840854e-16 -6.755186885e-17)
(4 -8.508593437e-16 1.977632697e-16)
(4 9.027534972e-16 1.927538467e-17)
(4 -9.693358028e-16 -5.70175514e-17)
(4 5.781036506e-16 7.562031988e-17)
(4 -9.951323665e-17 -1.709855492e-16)
(4 -6.243929944e-17 2.356046611e-17)
(4 4.33191086e-17 -1.533533718e-16)
(4 5.484270585e-17 -1.62498123e-16)
(4 -7.612792686e-17 1.90167583e-16)
(4 -8.837531638e-18 9.77128003e-17)
(4 7.854547223e-17 1.417812883e-16)
(4 -1.289792783e-16 7.991115832e-17)
(4 5.473180341e-18 -2.968329019e-17)
(4 -1.536887693e-17 -2.539605333e-18)
(4 -1.816586142e-16 -8.974988164e-17)
(4 4.299667921e-17 -1.495077549e-16)
(4 -1.054085627e-16 -4.327415819e-17)
(4 -3.050700733e-17 -9.772968568e-18)
(4 -5.293516802e-17 2.421857318e-16)
(4 2.361888095e-15 3.273568365e-16)
(4 1.50084152e-14 7.106351826e-15)
(4 1.204942335e-13 4.862675274e-14)
(4 8.473424473e-13 3.317459023e-13)
(4 5.609550054e-12 2.118084324e-12)
(4 3.487839877e-11 1.260098878e-11)
(4 2.027604238e-10 6.992044926e-11)
(4.000000001 1.099720818e-09 3.607267566e-10)
(4.000000007 5.551952594e-09 1.726296493e-09)
(4.000000035 2.604072197e-08 7.649097784e-09)
(4.000000159 1.133192838e-07 3.134018704e-08)
(4.000000673 4.571260251e-07 1.186498624e-07)
(4.000002643 1.708894138e-06 4.149564447e-07)
(4.000009652 5.921210687e-06 1.340862196e-06)
(4.00003278 1.902658863e-05 4.005242255e-06)
(4.000103655 5.67465666e-05 1.106755554e-05)
(4.000305518 0.0001572608039 2.83157861e-05)
(4.000840504 0.0004054612267 6.71369354e-05)
(4.002161533 0.0009739116339 0.0001476549114)
(4.005204933 0.002182495861 0.0003014754658)
(4.011755787 0.004569698605 0.0005718410092)
(4.024949014 0.008952866561 0.001008146414)
(4.049845616 0.01643664024 0.001652208689)
(4.093929534 0.02831826555 0.002516348122)
(4.167275333 0.04584962874 0.003558171622)
(4.282094738 0.06985825717 0.004662161018)
(4.451440636 0.1002980477 0.005640481202)
(4.687060054 0.1358695981 0.00626174047)
(4.996705764 0.1738807454 0.006306273709)
(5.381527983 0.2104779641 0.005633475007)
(5.8343244 0.2412664467 0.004237390837)
(6.339315752 0.2621892292 0.002267237237)
(6.873729502 0.2704187555 1.174031751e-06)
(7.410938855 0.2649866073 -0.002220174743)
(7.924422888 0.2469578027 -0.004077961459)
)
;

boundaryField
{
    left
    {
        type            dirichlet;
        value           uniform (4 0 0);
    }
    right
    {
        type            dirichlet;
        value           uniform (4 0 0);
    }
    sides
    {
        type            empty;
    }
}


// ************************************************************************* //
