/*--------------------------------*- C++ -*----------------------------------*\
| =========                 |                                                 |
| \\      /  F ield         | foam-extend: Open Source CFD                    |
|  \\    /   O peration     | Version:     4.1                                |
|   \\  /    A nd           | Web:         http://www.foam-extend.org         |
|    \\/     M anipulation  |                                                 |
\*---------------------------------------------------------------------------*/
FoamFile
{
    version     2.0;
    format      ascii;
    class       volScalarField;
    location    "0";
    object      fvMesh/fvC;
}
// * * * * * * * * * * * * * * * * * * * * * * * * * * * * * * * * * * * * * //

dimensions      [0 0 0 0 0 0 0];

internalField   nonuniform List<scalar> 
100
(
-1
-1
-1
-1
-1
-1
-1
-1
-1
-1
-1
-1
-1
-1
-1
-1
-1
-1
-1
-1
-1
-1
-1
-0.999984244091
-0.604478016835
-0.604478016835
-0.999984244091
-1
-1
-1
-1
-1
-0.999984244091
0.999955390033
0.99999999999
0.99999999999
0.999955390033
-0.999984244091
-1
-1
-1
-1
-0.604478016835
0.99999999999
1
1
0.99999999999
-0.604478016835
-1
-1
-1
-1
-0.604478016835
0.99999999999
1
1
0.99999999999
-0.604478016835
-1
-1
-1
-1
-0.999984244091
0.999955390033
0.99999999999
0.99999999999
0.999955390033
-0.999984244091
-1
-1
-1
-1
-1
-0.999984244091
-0.604478016835
-0.604478016835
-0.999984244091
-1
-1
-1
-1
-1
-1
-1
-1
-1
-1
-1
-1
-1
-1
-1
-1
-1
-1
-1
-1
-1
-1
-1
)
;

boundaryField
{
    top
    {
        type            zeroGradient;
    }
    bottom
    {
        type            zeroGradient;
    }
    left
    {
        type            zeroGradient;
    }
    right
    {
        type            zeroGradient;
    }
    frontAndBack
    {
        type            zeroGradient;
    }
}


// ************************************************************************* //
