/*--------------------------------*- C++ -*----------------------------------*\
| =========                 |                                                 |
| \\      /  F ield         | foam-extend: Open Source CFD                    |
|  \\    /   O peration     | Version:     4.1                                |
|   \\  /    A nd           | Web:         http://www.foam-extend.org         |
|    \\/     M anipulation  |                                                 |
\*---------------------------------------------------------------------------*/
FoamFile
{
    version     2.0;
    format      ascii;
    class       cellScalarField;
    location    "3.5";
    object      T;
}
// * * * * * * * * * * * * * * * * * * * * * * * * * * * * * * * * * * * * * //

dimensions      [0 0 0 0 1 0 0];

internalField   nonuniform 
100
(
(4.000000083 -1.428090139e-08 -2.326460137e-07)
(4.000000865 6.020765056e-06 1.354985218e-05)
(4.000212142 0.0002081798232 -1.934977993e-05)
(4.001701699 0.002050012451 0.003513589949)
(4.068403067 0.09174556551 0.04380696115)
(4.618203387 0.5076464144 0.09375118751)
(6.138426877 0.9673584971 0.02525258683)
(8.047004022 0.8570613776 -0.06795549301)
(9.324586647 0.4169183851 -0.06426800777)
(9.835756925 0.126070498 -0.02626849409)
(9.970410312 0.02626749829 -0.006515942315)
(9.995828393 0.004098751416 -0.001138300343)
(9.999517545 0.0005104273846 -0.0001533792928)
(9.999952481 5.317407385e-05 -1.693475092e-05)
(9.999995897 4.797642226e-06 -1.597852639e-06)
(9.999999682 3.847483169e-07 -1.327839353e-07)
(9.999999978 2.797038548e-08 -9.938002954e-09)
(9.999999999 1.871574575e-09 -6.813235414e-10)
(10 1.16657662e-10 -4.335340199e-11)
(10 6.838655263e-12 -2.586858335e-12)
(10 3.773786068e-13 -1.45828621e-13)
(10 1.945258264e-14 -7.924076194e-15)
(10 2.876163789e-16 -4.009451696e-16)
(10 5.486614146e-16 -5.909592617e-17)
(10 -1.478833931e-16 1.649625019e-16)
(10 1.103399085e-16 -1.061195781e-16)
(10 -2.17403972e-16 -3.827721672e-16)
(10 6.373263894e-16 -2.40438141e-17)
(10 -8.864664386e-16 9.238576227e-16)
(10 6.427968404e-17 -7.477856783e-16)
(10 2.06054808e-16 2.532064164e-17)
(10 -4.517364222e-16 -1.002773485e-16)
(10 -1.354139195e-18 -3.764937744e-16)
(10 1.093485728e-16 -2.476728024e-16)
(10 8.52322122e-17 -4.06071495e-16)
(10 -5.817901261e-17 -2.008818741e-16)
(10 3.823046437e-17 2.275369471e-16)
(10 -1.685932666e-17 -1.087825638e-17)
(10 2.413900432e-16 1.962281516e-16)
(10 -2.66512645e-16 -2.695542951e-17)
(10 1.364883093e-16 1.74959894e-17)
(10 -2.188385326e-16 5.564619606e-16)
(10 -1.000862168e-15 5.078880458e-16)
(10 1.354184939e-16 -7.673887638e-17)
(10 4.236895964e-18 -2.400961834e-18)
(10 1.325615644e-19 -7.511991314e-20)
(10 4.147509993e-21 -2.350308642e-21)
(10 1.297649075e-22 -7.353510516e-23)
(10 4.060009799e-24 -2.300724081e-24)
(10 1.270272517e-25 -7.198373192e-26)
(10 3.974355599e-27 -2.252185607e-27)
(10 1.243473523e-28 -7.046508804e-29)
(10 3.890508449e-30 -2.204671151e-30)
(10 1.217239909e-31 -6.897848306e-32)
(10 3.808430225e-33 -2.158159109e-33)
(10 1.191559747e-34 -6.752324104e-35)
(10 3.728083609e-36 -2.112628333e-36)
(10 1.166421359e-37 -6.609870033e-38)
(10 3.649432069e-39 -2.068058123e-39)
(10 1.141813318e-40 -6.470421321e-41)
(10 3.572439844e-42 -2.024428212e-42)
(10 1.117724433e-43 -6.333914564e-44)
(10 3.497071927e-45 -1.981718763e-45)
(10 1.094143753e-46 -6.200287697e-47)
(10 3.42329405e-48 -1.939910357e-48)
(10 1.071060555e-49 -6.069479961e-50)
(10 3.351072669e-51 -1.898983985e-51)
(10 1.048464345e-52 -5.941431881e-53)
(10 3.280374945e-54 -1.858921038e-54)
(10 1.026344847e-55 -5.816085237e-56)
(10 3.211168733e-57 -1.819703301e-57)
(10 1.004692006e-58 -5.693383036e-59)
(10 3.143422567e-60 -1.781312941e-60)
(10 9.834959748e-62 -5.573269486e-62)
(10 3.077105644e-63 -1.743732504e-63)
(10 9.627471166e-65 -5.455689972e-65)
(10 3.012187807e-66 -1.7069449e-66)
(10 9.424359958e-68 -5.340591025e-68)
(10 2.948639534e-69 -1.6709334e-69)
(10 9.225533747e-71 -5.227920296e-71)
(10 2.886431918e-72 -1.635681622e-72)
(10 9.030902071e-74 -5.117626521e-74)
(10 2.825536649e-75 -1.601173522e-75)
(10 8.840376326e-77 -5.009659488e-77)
(10 2.765925994e-78 -1.567393385e-78)
(10 8.653869697e-80 -4.903969997e-80)
(10 2.707572775e-81 -1.534325808e-81)
(10 8.471297115e-83 -4.800509839e-83)
(10 2.650450367e-84 -1.501955703e-84)
(10 8.29257527e-86 -4.699231809e-86)
(10 2.594532719e-87 -1.470268311e-87)
(10 8.117622777e-89 -4.600089802e-89)
(10 2.539794447e-90 -1.439249255e-90)
(10 7.946360663e-92 -4.503039111e-92)
(10 2.486211069e-93 -1.408884685e-93)
(10 7.778713425e-95 -4.408037052e-95)
(10 2.433759473e-96 -1.379161547e-96)
(10 7.614611065e-98 -4.315044158e-98)
(10 2.382418778e-99 -1.350068097e-99)
(10 -1.632420636e-15 3.844977993e-15)
)
;

boundaryField
{
    left
    {
        type            dirichlet;
        value           uniform (4 0 0);
    }
    right
    {
        type            dirichlet;
        value           uniform (4 0 0);
    }
    sides
    {
        type            empty;
    }
}


// ************************************************************************* //
