/*--------------------------------*- C++ -*----------------------------------*\
| =========                 |                                                 |
| \\      /  F ield         | foam-extend: Open Source CFD                    |
|  \\    /   O peration     | Version:     4.1                                |
|   \\  /    A nd           | Web:         http://www.foam-extend.org         |
|    \\/     M anipulation  |                                                 |
\*---------------------------------------------------------------------------*/
FoamFile
{
    version     2.0;
    format      ascii;
    class       cellScalarField;
    location    "0.7";
    object      T;
}
// * * * * * * * * * * * * * * * * * * * * * * * * * * * * * * * * * * * * * //

dimensions      [0 0 0 0 1 0 0];

internalField   nonuniform 10((4.323867326 0.6691664552 0.4197422785) (7.553871236 1.972142079 -0.2804518031) (9.738077989 0.3258572585 -0.1122855926) (9.984892836 0.0207744263 -0.007970836711) (9.999318599 0.0009832641269 -0.000396637155) (9.999973035 4.015121586e-05 -1.676261781e-05) (9.999999015 1.502683063e-06 -6.454302084e-07) (9.999999966 5.314198627e-08 -2.342107375e-08) (9.999999999 1.807294766e-09 -8.161608459e-10) (10 5.975545674e-11 -2.762098337e-11));

boundaryField
{
    left
    {
        type            dirichlet;
        value           uniform (4 0 0);
    }
    right
    {
        type            dirichlet;
        value           uniform (4 0 0);
    }
    sides
    {
        type            empty;
    }
}


// ************************************************************************* //
