/*--------------------------------*- C++ -*----------------------------------*\
| =========                 |                                                 |
| \\      /  F ield         | foam-extend: Open Source CFD                    |
|  \\    /   O peration     | Version:     4.1                                |
|   \\  /    A nd           | Web:         http://www.foam-extend.org         |
|    \\/     M anipulation  |                                                 |
\*---------------------------------------------------------------------------*/
FoamFile
{
    version     2.0;
    format      ascii;
    class       cellScalarField;
    location    "12.8";
    object      T;
}
// * * * * * * * * * * * * * * * * * * * * * * * * * * * * * * * * * * * * * //

dimensions      [0 0 0 0 1 0 0];

internalField   nonuniform 
100
(
(4 -5.703630593e-17 1.624202108e-17)
(4 -2.412571829e-16 -3.191851446e-17)
(4 -3.569068377e-17 2.023847369e-16)
(4 8.12923608e-17 3.757833755e-17)
(4 -3.425281955e-17 2.069382261e-16)
(4 -5.558425315e-16 -1.09027367e-16)
(4 2.804643415e-16 -1.040197504e-16)
(4 -3.58964935e-16 2.25123731e-17)
(4 3.192213283e-16 1.59581006e-15)
(4 1.291189512e-13 8.863924209e-14)
(4 1.778363894e-12 9.972827642e-13)
(4 4.323097622e-11 3.353785485e-11)
(4.000000001 8.87730871e-10 5.078252471e-10)
(4.000000011 1.290172333e-08 7.992341087e-09)
(4.000000175 2.022230166e-07 1.165770839e-07)
(4.000002306 2.500746654e-06 1.282637804e-06)
(4.000025117 2.611153967e-05 1.287035779e-05)
(4.000242554 0.0002437742015 0.0001079703649)
(4.001936318 0.00178195322 0.0006481919333)
(4.011761349 0.009413597259 0.002683454075)
(4.053368665 0.0358968289 0.007772297539)
(4.184102144 0.1013088932 0.01602887027)
(4.49643676 0.2175823915 0.02357173867)
(5.077370986 0.3645682312 0.02374233257)
(5.936209389 0.4867691484 0.0132600422)
(6.963615573 0.5273744229 -0.003328366804)
(7.973723016 0.4709512476 -0.01708080893)
(8.801161059 0.3514755535 -0.02220855455)
(9.372866009 0.2219502417 -0.01941895983)
(9.709777644 0.1199355386 -0.01313579206)
(9.880864791 0.05603610217 -0.007259714018)
(9.956444512 0.02285504948 -0.003378219523)
(9.985749096 0.008210536211 -0.001350511861)
(9.995805024 0.002619755503 -0.0004708847546)
(9.998882947 0.0007482357411 -0.000144956738)
(9.999729448 0.0001926952255 -3.980624825e-05)
(9.999940077 4.505191425e-05 -9.838992999e-06)
(9.9999878 9.623172264e-06 -2.206417186e-06)
(9.999997706 1.88906046e-06 -4.52119168e-07)
(9.999999599 3.426668141e-07 -8.519909485e-08)
(9.999999935 5.772961064e-08 -1.485120742e-08)
(9.99999999 9.075346472e-09 -2.407314121e-09)
(9.999999999 1.337058852e-09 -3.646237094e-10)
(10 1.853495176e-10 -5.183387246e-11)
(10 2.426788056e-11 -6.943275418e-12)
(10 3.013260172e-12 -8.809510457e-13)
(10 3.549340067e-13 -1.057585082e-13)
(10 3.947973643e-14 -1.212991136e-14)
(10 2.260994978e-16 -1.408786115e-15)
(10 1.475060646e-15 -4.648475166e-16)
(10 3.227045406e-16 -4.982340988e-16)
(10 1.803483689e-17 4.354117813e-17)
(10 2.004809649e-16 -6.108789834e-16)
(10 3.278628604e-17 -1.970559721e-16)
(10 -3.941371618e-16 -1.410058438e-16)
(10 2.791723202e-17 5.469162663e-17)
(10 2.183163628e-16 -9.455094133e-17)
(10 -1.893783978e-16 4.366589949e-16)
(10 -3.791300421e-16 -3.95325144e-16)
(10 9.370022616e-17 -2.750949292e-16)
(10 2.472033514e-16 -4.063603156e-17)
(10 -1.62475704e-19 2.647533288e-16)
(10 4.264661024e-18 -1.291643982e-17)
(10 -8.768113992e-17 4.352377334e-17)
(10 3.615920494e-16 -4.289597633e-16)
(10 -5.474776764e-16 1.109793794e-16)
(10 1.688726678e-16 -2.132274327e-16)
(10 -3.750350624e-16 -2.594347044e-17)
(10 -2.627220101e-16 -1.178631715e-17)
(10 -1.542715387e-16 5.841284338e-16)
(10 3.182826529e-16 2.251663394e-16)
(10 -4.572965783e-16 -2.791288127e-17)
(10 1.793762372e-16 -2.571147816e-16)
(10 4.259653977e-16 1.343820476e-16)
(10 1.058927892e-16 -2.189477356e-16)
(10 2.780627549e-16 1.004760972e-16)
(10 5.728673751e-17 2.457066901e-16)
(10 4.298584577e-16 -2.520554344e-16)
(10 4.328143286e-16 -4.637658234e-17)
(10 3.664930333e-16 2.718584708e-16)
(10 1.17419991e-16 -5.353401928e-17)
(10 2.040300491e-16 4.544783445e-16)
(10 1.56904428e-16 -9.754866521e-18)
(10 -4.760368267e-17 2.475913075e-16)
(10 -3.453045248e-16 3.796944178e-16)
(10 -8.76611313e-17 2.358334633e-16)
(10 -4.134916879e-16 -5.384400394e-17)
(10 4.283616213e-16 -2.93579754e-16)
(10 -1.395631324e-16 -2.440602659e-16)
(10 2.667084719e-16 -2.114667819e-16)
(10 9.880129305e-17 -2.356528756e-16)
(10 2.01970732e-16 -9.731015586e-17)
(10 3.154340062e-16 -1.955558612e-16)
(10 1.656468397e-16 -2.755451379e-17)
(10 6.608479439e-17 3.324938744e-16)
(10 -4.682492017e-17 4.057731116e-16)
(10 1.66129054e-16 -3.989088146e-17)
(10 -3.046319805e-16 -2.973515728e-16)
(10 5.972345429e-16 1.752582616e-16)
(10 -1.878085031e-15 3.851969112e-15)
)
;

boundaryField
{
    left
    {
        type            dirichlet;
        value           uniform (4 0 0);
    }
    right
    {
        type            dirichlet;
        value           uniform (4 0 0);
    }
    sides
    {
        type            empty;
    }
}


// ************************************************************************* //
