/*--------------------------------*- C++ -*----------------------------------*\
| =========                 |                                                 |
| \\      /  F ield         | foam-extend: Open Source CFD                    |
|  \\    /   O peration     | Version:     4.1                                |
|   \\  /    A nd           | Web:         http://www.foam-extend.org         |
|    \\/     M anipulation  |                                                 |
\*---------------------------------------------------------------------------*/
FoamFile
{
    version     2.0;
    format      ascii;
    class       cellScalarField;
    location    "5.2";
    object      T;
}
// * * * * * * * * * * * * * * * * * * * * * * * * * * * * * * * * * * * * * //

dimensions      [0 0 0 0 1 0 0];

internalField   nonuniform 
100
(
(4 8.71652448e-13 -4.918930681e-11)
(4 7.704777261e-10 3.344915667e-09)
(4.000000055 4.422706202e-08 -4.073858669e-08)
(4.000000192 4.656002524e-07 1.820667135e-06)
(4.000038088 5.086838058e-05 1.833991675e-05)
(4.000406493 0.0003629585004 0.0003098212696)
(4.007865431 0.01033349914 0.006390738412)
(4.099430053 0.1004006006 0.03283360396)
(4.553504807 0.3808731964 0.06197968108)
(5.676032028 0.7286976931 0.03812528715)
(7.264402207 0.8087684293 -0.02366739505)
(8.672138654 0.5704675648 -0.05273554411)
(9.507550857 0.2740080989 -0.03904501073)
(9.858264123 0.09491786651 -0.01733234695)
(9.967544987 0.0249181712 -0.005357193623)
(9.993923338 0.00517444221 -0.001248925305)
(9.999044835 0.0008813874803 -0.0002318588507)
(9.999870941 0.0001269292537 -3.568274834e-05)
(9.999984701 1.584347103e-05 -4.695146323e-06)
(9.999998381 1.749330458e-06 -5.411238906e-07)
(9.999999845 1.737255155e-07 -5.568554418e-08)
(9.999999986 1.573172264e-08 -5.196323448e-09)
(9.999999999 1.313812879e-09 -4.452657568e-10)
(10 1.021471222e-10 -3.539949122e-11)
(10 7.451633103e-12 -2.633326188e-12)
(10 5.149341801e-13 -1.857129565e-13)
(10 3.320380302e-14 -1.240674453e-14)
(10 1.169705457e-15 4.681441973e-17)
(10 -8.270195127e-16 8.97913967e-17)
(10 5.799845404e-16 5.806798365e-16)
(10 -1.246018793e-15 8.370408864e-16)
(10 5.220047986e-16 -3.972523159e-16)
(10 1.73423198e-16 5.309419542e-16)
(10 -5.954296899e-16 3.513426118e-16)
(10 2.427308115e-16 -1.916905515e-16)
(10 -1.333405374e-16 -2.894153558e-16)
(10 -3.66942486e-16 2.573024917e-16)
(10 -4.650032117e-17 -2.017702105e-16)
(10 2.896021111e-16 -1.282183946e-16)
(10 -5.580815922e-17 1.577109599e-16)
(10 -1.868944258e-16 -6.363656438e-17)
(10 -2.318305301e-16 1.300653361e-17)
(10 -3.604485466e-17 7.797473054e-16)
(10 -1.959014778e-16 2.966751365e-16)
(10 -4.527813568e-16 2.842297838e-16)
(10 8.517484701e-18 3.109506282e-17)
(10 -5.82168564e-17 2.011315599e-16)
(10 -1.57599631e-16 4.256786584e-17)
(10 -7.511947905e-17 -4.617334172e-16)
(10 2.315652255e-16 -3.373756552e-16)
(10 1.914212538e-16 -5.530711089e-16)
(10 -3.754423464e-17 -3.116279267e-16)
(10 4.619326547e-17 3.20197965e-16)
(10 -4.965320512e-17 -5.651813039e-18)
(10 3.232626165e-16 3.50258352e-16)
(10 -4.601928857e-16 -7.640301957e-17)
(10 2.618813494e-16 2.949202433e-17)
(10 -1.365865064e-16 -1.744219838e-17)
(10 2.188364463e-16 -5.564608176e-16)
(10 1.000862123e-15 -5.078880214e-16)
(10 -1.354184949e-16 7.67388769e-17)
(10 -4.236895985e-18 2.400961845e-18)
(10 -1.325615648e-19 7.511991338e-20)
(10 -4.147510002e-21 2.350308647e-21)
(10 -1.297649077e-22 7.353510527e-23)
(10 -4.060009803e-24 2.300724083e-24)
(10 -1.270272518e-25 7.198373197e-26)
(10 -3.974355601e-27 2.252185608e-27)
(10 -1.243473524e-28 7.046508807e-29)
(10 -3.890508449e-30 2.204671151e-30)
(10 -1.217239909e-31 6.897848307e-32)
(10 -3.808430225e-33 2.158159109e-33)
(10 -1.191559747e-34 6.752324105e-35)
(10 -3.728083609e-36 2.112628333e-36)
(10 -1.16642136e-37 6.609870033e-38)
(10 -3.649432069e-39 2.068058123e-39)
(10 -1.141813318e-40 6.470421321e-41)
(10 -3.572439844e-42 2.024428212e-42)
(10 -1.117724433e-43 6.333914564e-44)
(10 -3.497071927e-45 1.981718763e-45)
(10 -1.094143753e-46 6.200287697e-47)
(10 -3.42329405e-48 1.939910357e-48)
(10 -1.071060555e-49 6.069479961e-50)
(10 -3.351072669e-51 1.898983985e-51)
(10 -1.048464345e-52 5.941431881e-53)
(10 -3.280374945e-54 1.858921038e-54)
(10 -1.026344847e-55 5.816085238e-56)
(10 -3.211168734e-57 1.819703301e-57)
(10 -1.004692006e-58 5.693383038e-59)
(10 -3.143422569e-60 1.781312942e-60)
(10 -9.834959756e-62 5.573269491e-62)
(10 -3.077105648e-63 1.743732507e-63)
(10 -9.627471188e-65 5.455689985e-65)
(10 -3.012187818e-66 1.706944907e-66)
(10 -9.424360014e-68 5.340591059e-68)
(10 -2.948639562e-69 1.670933417e-69)
(10 -9.225533886e-71 5.22792038e-71)
(10 -2.886431987e-72 1.635681663e-72)
(10 -9.030902402e-74 5.117626719e-74)
(10 -1.60377503e-15 4.102547698e-15)
)
;

boundaryField
{
    left
    {
        type            dirichlet;
        value           uniform (4 0 0);
    }
    right
    {
        type            dirichlet;
        value           uniform (4 0 0);
    }
    sides
    {
        type            empty;
    }
}


// ************************************************************************* //
