/*--------------------------------*- C++ -*----------------------------------*\
| =========                 |                                                 |
| \\      /  F ield         | foam-extend: Open Source CFD                    |
|  \\    /   O peration     | Version:     4.1                                |
|   \\  /    A nd           | Web:         http://www.foam-extend.org         |
|    \\/     M anipulation  |                                                 |
\*---------------------------------------------------------------------------*/
FoamFile
{
    version     2.0;
    format      ascii;
    class       cellScalarField;
    location    "2.1";
    object      T;
}
// * * * * * * * * * * * * * * * * * * * * * * * * * * * * * * * * * * * * * //

dimensions      [0 0 0 0 1 0 0];

internalField   nonuniform 10((4.000244393 0.0003853119207 -3.484273404e-05) (4.000108237 -0.001652216443 0.00615491368) (4.154576812 0.237970996 0.1162189713) (5.451888527 1.084131734 0.1007700127) (7.857365932 1.135748995 -0.1060248961) (9.437158048 0.4436261776 -0.08990100363) (9.909756365 0.08756583497 -0.02340062496) (9.989859146 0.011088482 -0.003402482377) (9.999111879 0.0010484588 -0.0003496069946) (9.999935059 8.087380661e-05 -2.852130212e-05));

boundaryField
{
    left
    {
        type            dirichlet;
        value           uniform (4 0 0);
    }
    right
    {
        type            dirichlet;
        value           uniform (4 0 0);
    }
    sides
    {
        type            empty;
    }
}


// ************************************************************************* //
