/*--------------------------------*- C++ -*----------------------------------*\
| =========                 |                                                 |
| \\      /  F ield         | foam-extend: Open Source CFD                    |
|  \\    /   O peration     | Version:     4.1                                |
|   \\  /    A nd           | Web:         http://www.foam-extend.org         |
|    \\/     M anipulation  |                                                 |
\*---------------------------------------------------------------------------*/
FoamFile
{
    version     2.0;
    format      ascii;
    class       cellScalarField;
    location    "20";
    object      T;
}
// * * * * * * * * * * * * * * * * * * * * * * * * * * * * * * * * * * * * * //

dimensions      [0 0 0 0 1 0 0];

internalField   nonuniform 
100
(
(4 -5.703630593e-17 1.624202108e-17)
(4 -1.08561266e-16 2.938288083e-16)
(4 -9.075360353e-17 -3.494120621e-17)
(4 -1.932488361e-16 -2.122014224e-16)
(4 1.715537377e-16 -4.951851322e-17)
(4 -4.28699791e-16 -1.217066869e-16)
(4 4.240715931e-16 1.935550844e-18)
(4 -3.038663523e-16 1.640088902e-16)
(4 8.424323283e-16 -5.489226124e-17)
(4 -1.298768369e-15 3.717612706e-17)
(4 -1.067354916e-18 1.137565004e-16)
(4 1.199573676e-15 1.221215143e-16)
(4 -5.94873642e-16 1.848327025e-16)
(4 3.662147793e-17 1.469708966e-16)
(4 1.524004578e-16 1.617161837e-16)
(4 3.414682574e-17 -1.755334529e-16)
(4 1.868657631e-16 2.779243306e-16)
(4 1.683165753e-15 -2.524159546e-16)
(4 -2.266699027e-16 5.380338591e-16)
(4 7.168519183e-15 4.850578587e-15)
(4 1.304647886e-13 7.926725993e-14)
(4 2.002322135e-12 1.181189706e-12)
(4 2.812224241e-11 1.575267572e-11)
(4 3.551532885e-10 1.911916162e-10)
(4.000000004 4.112975773e-09 2.115400169e-09)
(4.000000041 4.288967764e-08 2.07615151e-08)
(4.000000397 3.972503894e-07 1.803193819e-07)
(4.000003398 3.260611008e-06 1.373022873e-06)
(4.000025565 2.326034857e-05 8.864637694e-06)
(4.000165295 0.0001399045167 4.697941948e-05)
(4.000899906 0.0006947257842 0.0002011865686)
(4.004088461 0.002830001631 0.0006948570149)
(4.015519713 0.00949075374 0.001944378318)
(4.049584161 0.02642164268 0.004434058096)
(4.134700479 0.06166711195 0.008272606972)
(4.314700888 0.1218707445 0.01261327385)
(4.639796817 0.2058611211 0.01554037349)
(5.145501901 0.2997996479 0.01492735705)
(5.828325407 0.3793980732 0.009907610731)
(6.634335368 0.4202343783 0.001771968419)
(7.471544892 0.4100929806 -0.006603775227)
(8.241398492 0.354733621 -0.01242074025)
(8.871613441 0.2735221127 -0.01440344651)
(9.333289172 0.1889849537 -0.01306991486)
(9.637428229 0.1175813223 -0.009949206593)
(9.818432983 0.06618100089 -0.006559827745)
(9.916174375 0.03384627808 -0.00381610654)
(9.964261711 0.01579330906 -0.001983167302)
(9.985901557 0.006750484553 -0.0009291776278)
(9.994842412 0.002652966987 -0.0003953732801)
(9.998246212 0.0009621123476 -0.0001537195046)
(9.999444336 0.0003230798749 -5.489699933e-05)
(9.999835557 0.0001007887904 -1.809218111e-05)
(9.999954433 2.930209884e-05 -5.525640775e-06)
(9.999988148 7.962982989e-06 -1.569977017e-06)
(9.9999971 2.028581207e-06 -4.164501844e-07)
(9.999999331 4.857827328e-07 -1.034719151e-07)
(9.999999854 1.096388967e-07 -2.415498996e-08)
(9.99999997 2.338018921e-08 -5.313333895e-09)
(9.999999994 4.722041491e-09 -1.104275134e-09)
(9.999999999 9.053141398e-10 -2.173927285e-10)
(10 1.651208503e-10 -4.063610614e-11)
(10 2.871153166e-11 -7.228436464e-12)
(10 4.766959506e-12 -1.226266571e-12)
(10 7.561039675e-13 -1.989414427e-13)
(10 1.10384525e-13 -2.993254933e-14)
(10 1.899873121e-14 -4.296378402e-15)
(10 4.038252736e-15 -1.956566982e-15)
(10 -1.675268816e-16 -1.615422098e-16)
(10 1.98525313e-16 -4.143054487e-17)
(10 8.116052063e-17 -3.747055283e-16)
(10 -2.404626205e-16 2.591635362e-16)
(10 -2.009744056e-16 9.31645397e-17)
(10 -2.529578729e-16 -2.733047425e-16)
(10 1.112656867e-16 6.133340776e-16)
(10 -2.386273193e-18 2.349704548e-16)
(10 -5.058202445e-17 -6.5017719e-17)
(10 3.597133758e-16 6.038255889e-16)
(10 -2.340005356e-16 7.517154456e-16)
(10 -1.633120595e-18 2.542346436e-16)
(10 -1.093105984e-16 -1.823718254e-16)
(10 -2.16957366e-16 5.49272356e-16)
(10 -3.645746405e-16 -1.057206506e-16)
(10 1.0556023e-17 -5.322769957e-16)
(10 3.662892966e-16 1.346577083e-16)
(10 -1.305501994e-16 -5.236422163e-16)
(10 -2.402627854e-17 -1.180113144e-16)
(10 4.652615557e-17 1.338442699e-16)
(10 -2.329424942e-16 4.817283026e-16)
(10 -3.066808776e-16 7.704630131e-16)
(10 2.636163719e-16 2.357980706e-16)
(10 -1.262117827e-16 6.629142831e-16)
(10 1.128857455e-16 5.101688104e-17)
(10 2.567823972e-16 6.477107463e-16)
(10 5.428874323e-17 2.34101193e-16)
(10 4.761941997e-17 2.347810554e-16)
(10 -6.640723726e-17 -7.073870264e-18)
(10 -4.835892701e-17 1.636724482e-16)
(10 5.133000885e-17 -1.358251141e-16)
(10 -1.169851038e-15 4.042490741e-15)
)
;

boundaryField
{
    left
    {
        type            dirichlet;
        value           uniform (4 0 0);
    }
    right
    {
        type            dirichlet;
        value           uniform (4 0 0);
    }
    sides
    {
        type            empty;
    }
}


// ************************************************************************* //
