/*--------------------------------*- C++ -*----------------------------------*\
| =========                 |                                                 |
| \\      /  F ield         | foam-extend: Open Source CFD                    |
|  \\    /   O peration     | Version:     4.1                                |
|   \\  /    A nd           | Web:         http://www.foam-extend.org         |
|    \\/     M anipulation  |                                                 |
\*---------------------------------------------------------------------------*/
FoamFile
{
    version     2.0;
    format      ascii;
    class       cellScalarField;
    location    "5.4";
    object      T;
}
// * * * * * * * * * * * * * * * * * * * * * * * * * * * * * * * * * * * * * //

dimensions      [0 0 0 0 1 0 0];

internalField   nonuniform 10((4 1.699220367e-11 -9.126009493e-12) (4 -6.830625101e-10 7.580783815e-10) (4.000000027 4.108863889e-08 -1.187683332e-09) (4.000000009 -2.022226898e-07 3.779736703e-07) (4.000013984 2.237872469e-05 1.185451837e-05) (4.000198777 0.000171204957 9.581430333e-05) (4.003024409 0.003907506444 0.002828359091) (4.047022502 0.05189130866 0.02042008372) (4.324989615 0.2532337462 0.05283830704) (5.172019372 0.6000951407 0.05296253556));

boundaryField
{
    left
    {
        type            dirichlet;
        value           uniform (4 0 0);
    }
    right
    {
        type            dirichlet;
        value           uniform (4 0 0);
    }
    sides
    {
        type            empty;
    }
}


// ************************************************************************* //
