/*--------------------------------*- C++ -*----------------------------------*\
| =========                 |                                                 |
| \\      /  F ield         | foam-extend: Open Source CFD                    |
|  \\    /   O peration     | Version:     4.1                                |
|   \\  /    A nd           | Web:         http://www.foam-extend.org         |
|    \\/     M anipulation  |                                                 |
\*---------------------------------------------------------------------------*/
FoamFile
{
    version     2.0;
    format      ascii;
    class       cellScalarField;
    location    "2.6";
    object      T;
}
// * * * * * * * * * * * * * * * * * * * * * * * * * * * * * * * * * * * * * //

dimensions      [0 0 0 0 1 0 0];

internalField   nonuniform 10((4.000005117 2.148039604e-05 3.332888099e-05) (4.000446845 0.0001709076111 -0.0003036748051) (4.005851835 0.01133663353 0.01669639456) (4.25655471 0.3151112511 0.1091926894) (5.589355731 1.013580652 0.07388147059) (7.785712643 1.044955708 -0.0819989469) (9.318580114 0.4752835248 -0.08327030435) (9.864753282 0.1180378686 -0.02812954451) (9.980997376 0.01901513965 -0.00532703673) (9.997940787 0.002254481886 -0.0006972320521));

boundaryField
{
    left
    {
        type            dirichlet;
        value           uniform (4 0 0);
    }
    right
    {
        type            dirichlet;
        value           uniform (4 0 0);
    }
    sides
    {
        type            empty;
    }
}


// ************************************************************************* //
