/*--------------------------------*- C++ -*----------------------------------*\
| =========                 |                                                 |
| \\      /  F ield         | foam-extend: Open Source CFD                    |
|  \\    /   O peration     | Version:     4.1                                |
|   \\  /    A nd           | Web:         http://www.foam-extend.org         |
|    \\/     M anipulation  |                                                 |
\*---------------------------------------------------------------------------*/
FoamFile
{
    version     2.0;
    format      ascii;
    class       cellScalarField;
    location    "41.3";
    object      T;
}
// * * * * * * * * * * * * * * * * * * * * * * * * * * * * * * * * * * * * * //

dimensions      [0 0 0 0 1 0 0];

internalField   nonuniform 
100
(
(4 -5.703630593e-17 1.624202108e-17)
(4 5.546300273e-17 6.400968891e-17)
(4 -1.148370276e-16 1.841325052e-16)
(4 -6.096238827e-17 -6.438924849e-17)
(4 -4.169902928e-17 -1.588395188e-17)
(4 -4.058449425e-16 -6.579940304e-17)
(4 4.743617248e-16 8.811003323e-17)
(4 -4.350012602e-16 2.898342316e-17)
(4 7.965030905e-16 3.148689926e-17)
(4 -1.221455466e-15 9.47968041e-17)
(4 1.156815128e-16 3.055388258e-16)
(4 -2.458676762e-16 -1.591346803e-16)
(4 9.250959248e-16 1.845514227e-16)
(4 -4.17004571e-16 1.958411343e-16)
(4 2.467474332e-16 1.303610654e-16)
(4 -4.463481439e-16 -1.119972857e-17)
(4 3.182824624e-16 1.433897019e-16)
(4 -9.511551083e-16 1.95233323e-16)
(4 9.429620034e-16 -1.377882434e-16)
(4 -6.477494164e-16 6.34652235e-17)
(4 4.365796468e-16 4.876172664e-18)
(4 -4.543282539e-16 1.506927977e-16)
(4 -1.927022933e-18 2.385462135e-17)
(4 -1.826064525e-16 1.17294539e-16)
(4 9.498085732e-17 2.670858643e-17)
(4 -9.468246109e-17 3.823353175e-16)
(4 -7.633253038e-17 -4.64909369e-17)
(4 2.22266634e-17 -7.910441434e-17)
(4 -4.399077391e-16 -1.880557102e-16)
(4 5.694158056e-16 -7.913223336e-17)
(4 -1.679116566e-17 -1.315267159e-16)
(4 3.373179406e-17 -1.190935221e-16)
(4 7.023287669e-17 -8.236939186e-17)
(4 -3.753655032e-16 3.568894644e-17)
(4 4.25622205e-16 2.316637373e-17)
(4 -4.383227523e-16 9.955280749e-17)
(4 9.726141093e-16 6.291639987e-17)
(4 -6.891056856e-16 -2.395565813e-16)
(4 5.902311031e-16 9.136029457e-17)
(4 -2.411723506e-16 -3.68144941e-16)
(4 8.75880041e-16 8.466577272e-17)
(4 -8.106267904e-16 2.423692157e-17)
(4 6.302899621e-16 -1.577656817e-16)
(4 -2.349493873e-16 -1.983190355e-16)
(4 9.83778396e-17 9.498820574e-17)
(4 1.626445751e-16 8.736642343e-17)
(4 -4.858620895e-16 -5.379966168e-16)
(4 1.181541155e-15 -1.22184189e-16)
(4 -9.36546853e-16 5.923444182e-17)
(4 5.38969863e-16 -1.33252973e-16)
(4 -1.9440453e-16 7.167184836e-18)
(4 2.287268767e-17 -7.874964455e-17)
(4 1.04856149e-15 5.105182588e-16)
(4 6.712852685e-15 2.525706805e-15)
(4 5.93078558e-14 2.803959933e-14)
(4 5.101660819e-13 2.231804781e-13)
(4 3.996449167e-12 1.667196536e-12)
(4 2.913850331e-11 1.165407263e-11)
(4 1.978584712e-10 7.55289531e-11)
(4.000000001 1.245915121e-09 4.519250717e-10)
(4.000000009 7.24606146e-09 2.485488343e-09)
(4.000000049 3.877348209e-08 1.251483006e-08)
(4.00000025 1.902761392e-07 5.750689166e-08)
(4.000001178 8.543183564e-07 2.406241456e-07)
(4.000005098 3.504551613e-06 9.157197642e-07)
(4.000020234 1.312869025e-05 3.168507168e-06)
(4.000073682 4.492993807e-05 9.971980675e-06)
(4.000246367 0.0001406049112 2.857056819e-05)
(4.000757514 0.0004029407135 7.46050766e-05)
(4.002145845 0.001059301972 0.0001777797875)
(4.005612284 0.002559664157 0.0003870792691)
(4.013584228 0.005696697889 0.0007708804494)
(4.030504624 0.01170174661 0.001405319147)
(4.063717368 0.02223178659 0.002345768546)
(4.124129105 0.03914612739 0.003583636923)
(4.226156545 0.06401270437 0.005002829143)
(4.386453396 0.0973983072 0.006360752953)
(4.621174176 0.1381528077 0.007318226224)
(4.942077532 0.1830103563 0.007525319951)
(5.352415552 0.2268053629 0.006740976308)
(5.843972726 0.2634007535 0.004939044073)
(6.396512318 0.2871194218 0.002349867454)
(6.980193474 0.2942108831 -0.0005888241528)
(7.560492128 0.2838237273 -0.003356675194)
(8.10425323 0.2581378495 -0.005501068843)
(8.585137148 0.2216483386 -0.00675382642)
(8.987040833 0.179913145 -0.00707488334)
(9.30488042 0.1382302785 -0.006619097434)
(9.543021729 0.1006522129 -0.005653324918)
(9.712269034 0.06954153204 -0.004463444905)
(9.826497069 0.0456426586 -0.003283872788)
(9.899792408 0.02849006206 -0.002264071992)
(9.94455421 0.01693119649 -0.001468924677)
(9.97059943 0.00958995395 -0.0008997880671)
(9.985053402 0.005182393718 -0.0005217680286)
(9.992711532 0.002674656043 -0.0002870745679)
(9.996589118 0.001319643534 -0.0001501565422)
(9.99846722 0.0006230363724 -7.479636183e-05)
(9.999338189 0.0002817377623 -3.553715911e-05)
(9.999725275 0.0001221374305 -1.612765839e-05)
)
;

boundaryField
{
    left
    {
        type            dirichlet;
        value           uniform (4 0 0);
    }
    right
    {
        type            dirichlet;
        value           uniform (4 0 0);
    }
    sides
    {
        type            empty;
    }
}


// ************************************************************************* //
