/*--------------------------------*- C++ -*----------------------------------*\
| =========                 |                                                 |
| \\      /  F ield         | foam-extend: Open Source CFD                    |
|  \\    /   O peration     | Version:     4.1                                |
|   \\  /    A nd           | Web:         http://www.foam-extend.org         |
|    \\/     M anipulation  |                                                 |
\*---------------------------------------------------------------------------*/
FoamFile
{
    version     2.0;
    format      ascii;
    class       cellScalarField;
    location    "25";
    object      T;
}
// * * * * * * * * * * * * * * * * * * * * * * * * * * * * * * * * * * * * * //

dimensions      [0 0 0 0 1 0 0];

internalField   nonuniform 
100
(
(4 -5.703630593e-17 1.624202108e-17)
(4 -2.035207307e-16 8.573500448e-17)
(4 -5.135131884e-17 -7.132541824e-17)
(4 -6.72261122e-17 -2.002828248e-17)
(4 -1.437328526e-16 -9.090379677e-17)
(4 -4.350565691e-16 2.01345168e-16)
(4 4.388923545e-16 5.091611996e-17)
(4 -5.159749092e-16 -8.822408057e-17)
(4 8.466319878e-16 -4.938304741e-17)
(4 -9.275838558e-16 -2.054989986e-16)
(4 2.394094517e-17 -1.228699038e-16)
(4 1.391132271e-15 -1.0299428e-16)
(4 -9.05511591e-16 -3.099692237e-17)
(4 3.841345952e-16 -5.653853599e-19)
(4 3.720337184e-17 2.831587941e-17)
(4 -6.887496755e-17 1.661724855e-16)
(4 -4.079804297e-18 1.93956724e-17)
(4 -2.22398312e-18 5.285555431e-17)
(4 -3.428366615e-17 -1.369016999e-17)
(4 2.547660289e-17 -1.132050583e-16)
(4 1.262281763e-16 1.672332473e-16)
(4 -2.793479221e-16 -5.953681009e-16)
(4 8.578110223e-16 -3.132382521e-17)
(4 -9.462949575e-16 2.006204236e-17)
(4 8.637953304e-16 7.629766766e-17)
(4 -9.677910389e-16 1.603213759e-16)
(4 1.263686369e-15 7.157825007e-16)
(4 1.583777867e-14 8.449812057e-15)
(4 1.964847177e-13 1.068034507e-13)
(4 2.406510687e-12 1.283966824e-12)
(4 2.749424797e-11 1.408929416e-11)
(4 2.891390879e-10 1.419105536e-10)
(4.000000003 2.783293557e-09 1.299143941e-09)
(4.000000025 2.431452407e-08 1.072329285e-08)
(4.000000203 1.913968982e-07 7.912305303e-08)
(4.000001488 1.34360861e-06 5.141888314e-07)
(4.000009696 8.288117321e-06 2.891326633e-06)
(4.00005542 4.429670614e-05 1.387732784e-05)
(4.000275365 0.0002033296989 5.646717423e-05)
(4.00118488 0.0007993556482 0.0001945667113)
(4.004418868 0.002696111543 0.0005689311782)
(4.014339324 0.007836023976 0.001416666332)
(4.040722844 0.01973657911 0.00301384279)
(4.101900048 0.04334269072 0.005488780412)
(4.226299408 0.08349681433 0.008551743109)
(4.449387564 0.1419289732 0.01133684087)
(4.804124439 0.2140476465 0.01259480461)
(5.306826048 0.2878873064 0.01127443693)
(5.944721021 0.346967817 0.007185354517)
(6.672750114 0.3764011953 0.001266340385)
(7.423180301 0.3690799303 -0.004787707934)
(8.124511275 0.3283943728 -0.009322351066)
(8.720963709 0.2661175803 -0.01143216651)
(9.184163564 0.1970882974 -0.01118538565)
(9.513713524 0.13383958 -0.00934586225)
(9.729182216 0.08359893208 -0.00687502549)
(9.859032763 0.04817277719 -0.004529572246)
(9.931364659 0.02568162086 -0.002702699689)
(9.968708645 0.01270123288 -0.001472183581)
(9.986624911 0.00584261467 -0.0007365880138)
(9.994632436 0.00250609593 -0.0003402233449)
(9.997974547 0.001004771613 -0.0001456888472)
(9.999280193 0.0003774225625 -5.805274025e-05)
(9.999758699 0.0001331233922 -2.159691894e-05)
(9.99992357 4.418627367e-05 -7.52383268e-06)
(9.999977089 1.383037937e-05 -2.461301292e-06)
(9.99999349 4.090437358e-06 -7.580230112e-07)
(9.999998244 1.145351111e-06 -2.203093477e-07)
(9.999999549 3.041971355e-07 -6.056124727e-08)
(9.99999989 7.677227883e-08 -1.577944062e-08)
(9.999999974 1.844350921e-08 -3.904793513e-09)
(9.999999994 4.224761916e-09 -9.194846789e-10)
(9.999999999 9.242302771e-10 -2.0640416e-10)
(10 1.934017169e-10 -4.424712709e-11)
(10 3.876460469e-11 -9.072090841e-12)
(10 7.457025793e-12 -1.782819924e-12)
(10 1.376452054e-12 -3.370277223e-13)
(10 2.386740355e-13 -6.076307656e-14)
(10 4.604382094e-14 -1.104678492e-14)
(10 9.87668476e-15 -3.255326638e-15)
(10 -4.643932433e-16 -3.65989564e-16)
(10 -4.239267669e-17 1.17900365e-16)
(10 -1.887839245e-17 -1.129711312e-16)
(10 1.782170526e-16 -2.779806458e-16)
(10 -3.228497515e-16 -2.123039243e-16)
(10 2.725211793e-16 8.421584336e-18)
(10 2.823728849e-16 5.344874607e-16)
(10 -2.58391772e-16 -1.606036565e-16)
(10 -2.25240095e-16 -4.428629401e-16)
(10 7.591270525e-17 4.386752657e-17)
(10 1.558819356e-17 2.862356945e-17)
(10 -3.360123743e-16 -4.160472737e-17)
(10 -6.017673286e-16 -3.363300818e-16)
(10 -3.370097965e-16 -7.054588476e-16)
(10 8.143284218e-17 -2.045271586e-16)
(10 5.500785837e-16 -7.443104346e-17)
(10 -1.421102036e-16 6.784968773e-16)
(10 -4.70885091e-16 4.028645447e-16)
(10 -1.558115033e-16 -5.539185868e-17)
(10 -2.419988106e-17 3.310179683e-15)
)
;

boundaryField
{
    left
    {
        type            dirichlet;
        value           uniform (4 0 0);
    }
    right
    {
        type            dirichlet;
        value           uniform (4 0 0);
    }
    sides
    {
        type            empty;
    }
}


// ************************************************************************* //
