/*--------------------------------*- C++ -*----------------------------------*\
| =========                 |                                                 |
| \\      /  F ield         | foam-extend: Open Source CFD                    |
|  \\    /   O peration     | Version:     4.1                                |
|   \\  /    A nd           | Web:         http://www.foam-extend.org         |
|    \\/     M anipulation  |                                                 |
\*---------------------------------------------------------------------------*/
FoamFile
{
    version     2.0;
    format      ascii;
    class       cellScalarField;
    location    "9.7";
    object      T;
}
// * * * * * * * * * * * * * * * * * * * * * * * * * * * * * * * * * * * * * //

dimensions      [0 0 0 0 1 0 0];

internalField   nonuniform 
100
(
(4 -5.703630593e-17 1.624202108e-17)
(4 4.359329529e-17 -8.197438585e-17)
(4 -6.22268575e-17 -4.744727484e-17)
(4 1.982465446e-15 5.646960135e-16)
(4 -3.325305949e-14 -3.058338464e-15)
(4 1.12063983e-12 6.00669071e-13)
(4 1.669038724e-13 6.888969686e-14)
(4 3.74653531e-10 3.373156444e-10)
(4.000000006 7.00286314e-09 3.221192362e-09)
(4.000000096 1.127884056e-07 8.866749578e-08)
(4.000001957 2.378395455e-06 1.340598789e-06)
(4.000026305 2.803036753e-05 1.474322989e-05)
(4.000302759 0.0003266032507 0.0001732268097)
(4.003141271 0.003208500694 0.001352281892)
(4.023259234 0.02017071031 0.006170396642)
(4.115726301 0.08056721986 0.01713859541)
(4.4013767 0.2159130014 0.02989514373)
(5.022374751 0.4084357346 0.03176699684)
(6.010362984 0.5678358967 0.01531191159)
(7.197835689 0.5991773745 -0.009819096571)
(8.304713619 0.4927567476 -0.02654984976)
(9.122927487 0.3230464681 -0.02798095933)
(9.612032699 0.1722108902 -0.01987173862)
(9.852636061 0.07598641392 -0.01069973691)
(9.951601784 0.02820358176 -0.004607045437)
(9.98614147 0.008936864751 -0.00163899029)
(9.99650923 0.002450570295 -0.0004932484311)
(9.999219544 0.0005887685965 -0.0001279258033)
(9.999843754 0.0001253557365 -2.903636124e-05)
(9.999971756 2.389727424e-05 -5.844147062e-06)
(9.999995354 4.117377226e-06 -1.05496246e-06)
(9.999999299 6.465968393e-07 -1.725095243e-07)
(9.999999902 9.326068029e-08 -2.57782929e-08)
(9.999999987 1.243933773e-08 -3.547503678e-09)
(9.999999998 1.543871566e-09 -4.526891628e-10)
(10 1.79290729e-10 -5.389360538e-11)
(10 1.958226922e-11 -6.018958499e-12)
(10 2.021297663e-12 -6.336994131e-13)
(10 1.973647087e-13 -6.357087741e-14)
(10 1.594594874e-14 -5.154219943e-15)
(10 1.297856453e-15 -8.47413085e-16)
(10 -1.988908763e-17 3.538899282e-16)
(10 -1.487700443e-16 2.604889037e-16)
(10 9.307997092e-17 8.988767847e-17)
(10 3.895410308e-16 -3.170008489e-16)
(10 -1.637101549e-16 -4.18935312e-16)
(10 1.239771684e-16 2.749675287e-16)
(10 -2.297753711e-16 3.324594717e-16)
(10 -3.786002894e-16 3.38502585e-17)
(10 5.479753254e-16 -3.410952651e-16)
(10 -1.019697634e-16 -1.283205561e-16)
(10 4.600616977e-17 -5.665495274e-16)
(10 -1.56355482e-16 -5.003255814e-16)
(10 2.165652925e-16 -2.173094384e-16)
(10 1.639630338e-17 9.182510426e-17)
(10 -3.953437642e-16 -3.173963646e-16)
(10 -6.193183189e-17 -2.180534768e-16)
(10 8.700055455e-17 2.818394952e-16)
(10 1.699420187e-16 4.498908906e-16)
(10 -4.815806764e-20 6.685478089e-17)
(10 2.047968149e-16 -3.420620315e-16)
(10 -4.696455576e-16 -1.407430693e-18)
(10 1.830647715e-16 7.963154336e-18)
(10 2.903424811e-18 5.12045382e-16)
(10 2.213601578e-16 1.054750441e-17)
(10 -4.325392926e-16 -4.945176589e-16)
(10 4.444514664e-16 5.82462341e-17)
(10 2.262802035e-16 1.959673971e-16)
(10 4.007104406e-16 -1.731678471e-16)
(10 -1.47122701e-16 -3.932331771e-16)
(10 1.615528805e-16 2.366355218e-16)
(10 2.270860984e-16 3.746004552e-16)
(10 1.82871609e-16 3.196644041e-16)
(10 -1.827563486e-16 -2.767147851e-16)
(10 1.565928107e-16 6.160380551e-17)
(10 -3.119270295e-16 2.379022802e-16)
(10 4.593988482e-16 3.832337916e-16)
(10 -3.817954549e-16 -3.411569144e-16)
(10 -3.764792685e-17 1.25218338e-16)
(10 -1.557991591e-16 6.354682183e-16)
(10 -6.271847206e-16 2.79897155e-16)
(10 3.013673658e-17 -1.418887296e-16)
(10 3.376524336e-16 -6.385584563e-17)
(10 -1.711844209e-16 2.263353132e-16)
(10 -2.523298774e-16 -1.508225036e-16)
(10 -2.922187995e-16 -7.778029022e-17)
(10 1.808607958e-16 3.070162787e-16)
(10 -2.493189259e-16 3.164087687e-16)
(10 -1.918092485e-16 5.745622757e-16)
(10 -1.639458028e-16 1.420049572e-16)
(10 -1.300682109e-16 2.757501344e-16)
(10 -2.409990997e-16 1.553484204e-17)
(10 -3.093905255e-16 6.489192761e-17)
(10 3.124138406e-16 -3.661027567e-16)
(10 3.185463172e-17 4.968406569e-17)
(10 -1.456091117e-16 -3.763257675e-16)
(10 4.130560516e-17 4.553089121e-16)
(10 -1.080810088e-16 -2.660973724e-18)
(10 4.231710706e-16 5.910967819e-16)
(10 -7.465290964e-17 3.093399142e-15)
)
;

boundaryField
{
    left
    {
        type            dirichlet;
        value           uniform (4 0 0);
    }
    right
    {
        type            dirichlet;
        value           uniform (4 0 0);
    }
    sides
    {
        type            empty;
    }
}


// ************************************************************************* //
