/*--------------------------------*- C++ -*----------------------------------*\
| =========                 |                                                 |
| \\      /  F ield         | foam-extend: Open Source CFD                    |
|  \\    /   O peration     | Version:     4.1                                |
|   \\  /    A nd           | Web:         http://www.foam-extend.org         |
|    \\/     M anipulation  |                                                 |
\*---------------------------------------------------------------------------*/
FoamFile
{
    version     2.0;
    format      ascii;
    class       cellScalarField;
    location    "10.6";
    object      T;
}
// * * * * * * * * * * * * * * * * * * * * * * * * * * * * * * * * * * * * * //

dimensions      [0 0 0 0 1 0 0];

internalField   nonuniform 
100
(
(4 -5.703630593e-17 1.624202108e-17)
(4 1.084196569e-16 -1.408107539e-16)
(4 -6.58174828e-17 1.176241665e-16)
(4 -1.460759628e-16 2.502005177e-16)
(4 2.757484909e-16 6.061467344e-17)
(4 -8.737482788e-15 -3.71802425e-15)
(4 3.17895417e-13 2.636888981e-13)
(4 2.661293039e-12 3.702595931e-13)
(4 9.985622303e-11 1.038130475e-10)
(4.000000002 2.684013628e-09 1.360432809e-09)
(4.000000033 3.716116899e-08 2.627064762e-08)
(4.000000614 7.456463268e-07 4.471370445e-07)
(4.00000876 9.533065399e-06 4.923412795e-06)
(4.000099506 0.0001054711411 5.51693825e-05)
(4.001035014 0.001068227233 0.0004791451472)
(4.008358893 0.007627161669 0.002613094341)
(4.047321521 0.03587335621 0.008970470691)
(4.189292507 0.1147865179 0.02004967291)
(4.556852908 0.2611944337 0.0294336021)
(5.257755526 0.4391038612 0.02664119947)
(6.272523838 0.562564357 0.009115346901)
(7.416476989 0.5634466136 -0.01259942332)
(8.44222176 0.4507740204 -0.02531691519)
(9.187431963 0.2934973677 -0.02524710426)
(9.633330551 0.1581230903 -0.01779625568)
(9.856346582 0.07155602224 -0.009746746815)
(9.950854044 0.02757494072 -0.00434012936)
(9.985215241 0.009164010498 -0.001616601178)
(9.996059374 0.002657188268 -0.0005142123974)
(9.999062269 0.0006795124576 -0.0001419854958)
(9.999799255 0.0001547798738 -3.45019824e-05)
(9.999961057 3.169028267e-05 -7.465135843e-06)
(9.999993106 5.881005007e-06 -1.453025258e-06)
(9.999998879 9.967715135e-07 -2.567285657e-07)
(9.999999832 1.553706862e-07 -4.15072952e-08)
(9.999999976 2.241352495e-08 -6.184864445e-09)
(9.999999997 3.009582619e-09 -8.548085472e-10)
(10 3.781109839e-10 -1.102141288e-10)
(10 4.465981507e-11 -1.332451134e-11)
(10 4.982638962e-12 -1.517623168e-12)
(10 5.265060839e-13 -1.648613109e-13)
(10 4.968117512e-14 -1.659545223e-14)
(10 3.248692633e-15 -1.644678763e-15)
(10 -1.245399969e-16 6.835027328e-17)
(10 1.111845903e-16 -4.701683743e-16)
(10 -3.511216026e-16 2.620968141e-16)
(10 -2.790895936e-16 4.223066497e-16)
(10 -1.480082373e-16 3.785159316e-16)
(10 2.72949571e-17 2.785786799e-16)
(10 -2.080185018e-17 -6.183015621e-17)
(10 2.07025968e-16 -3.379126054e-16)
(10 -2.562415212e-16 -5.370161525e-16)
(10 6.170531114e-16 -5.11047544e-16)
(10 4.982930329e-18 1.067052513e-16)
(10 1.223568582e-16 1.199807131e-16)
(10 -3.815985736e-16 9.964342359e-17)
(10 -9.459503494e-17 2.348709368e-16)
(10 -1.545899141e-16 8.184527764e-17)
(10 3.048826914e-16 1.837091251e-17)
(10 2.279208324e-16 7.816991505e-17)
(10 -8.257867217e-17 7.090989704e-17)
(10 -4.351322458e-16 4.317255108e-17)
(10 3.579283167e-16 -3.692252023e-16)
(10 1.27785132e-17 -1.935102512e-16)
(10 -5.020966139e-17 -5.025706527e-16)
(10 1.863758049e-16 -3.876797992e-16)
(10 2.365377586e-16 -5.210743124e-16)
(10 8.108743262e-17 -3.62561235e-16)
(10 3.73182603e-16 -5.119238435e-16)
(10 4.307130339e-16 2.573197542e-17)
(10 1.77173537e-16 -2.107170718e-18)
(10 4.089142949e-17 -3.131410277e-17)
(10 4.767178142e-16 -5.125545108e-18)
(10 -4.15620387e-16 2.754422123e-16)
(10 -1.139880427e-16 4.273044526e-17)
(10 4.361959834e-16 2.703848146e-16)
(10 5.438137528e-17 -4.079881849e-16)
(10 2.778282431e-17 -7.032151632e-16)
(10 2.665827875e-16 3.469155506e-16)
(10 2.098142569e-16 6.352217403e-16)
(10 1.244748135e-16 5.602571988e-16)
(10 -2.910521684e-16 -4.10320021e-16)
(10 2.83433172e-16 9.866756105e-17)
(10 -5.40940874e-16 2.711401533e-16)
(10 1.638810573e-16 3.382575741e-16)
(10 1.151716745e-16 -3.509583721e-16)
(10 -2.127281578e-16 2.433090619e-16)
(10 -2.980814584e-17 9.862191656e-17)
(10 -3.427209824e-16 4.588437865e-16)
(10 -5.619699873e-17 -1.244791546e-16)
(10 1.058443467e-17 -3.07970945e-16)
(10 -1.095728615e-16 1.724493176e-16)
(10 -3.152749723e-16 -3.063104395e-16)
(10 -3.405254462e-16 -2.392138052e-16)
(10 2.89519004e-16 4.494675869e-16)
(10 -4.884724923e-16 4.162309362e-16)
(10 -3.416005079e-17 -2.017949339e-17)
(10 -1.211978972e-16 7.451010497e-17)
(10 -2.0783034e-16 3.386079116e-16)
(10 -9.575878391e-16 4.080942741e-15)
)
;

boundaryField
{
    left
    {
        type            dirichlet;
        value           uniform (4 0 0);
    }
    right
    {
        type            dirichlet;
        value           uniform (4 0 0);
    }
    sides
    {
        type            empty;
    }
}


// ************************************************************************* //
