/*--------------------------------*- C++ -*----------------------------------*\
| =========                 |                                                 |
| \\      /  F ield         | foam-extend: Open Source CFD                    |
|  \\    /   O peration     | Version:     4.1                                |
|   \\  /    A nd           | Web:         http://www.foam-extend.org         |
|    \\/     M anipulation  |                                                 |
\*---------------------------------------------------------------------------*/
FoamFile
{
    version     2.0;
    format      ascii;
    class       cellScalarField;
    location    "5.3";
    object      T;
}
// * * * * * * * * * * * * * * * * * * * * * * * * * * * * * * * * * * * * * //

dimensions      [0 0 0 0 1 0 0];

internalField   nonuniform 10((4 1.516920994e-11 -2.433966281e-11) (3.999999999 -3.66495939e-10 1.746624087e-09) (4.000000041 4.853425853e-08 -1.597241581e-08) (4.000000032 -6.180539234e-08 8.998921812e-07) (4.00002359 3.463912131e-05 1.512956073e-05) (4.000282293 0.0002410804234 0.0001709837993) (4.004883305 0.006413858117 0.004307824485) (4.068937226 0.07292080755 0.02621108634) (4.42733517 0.3134835457 0.05809858849) (5.410822448 0.6673551243 0.04678763392));

boundaryField
{
    left
    {
        type            dirichlet;
        value           uniform (4 0 0);
    }
    right
    {
        type            dirichlet;
        value           uniform (4 0 0);
    }
    sides
    {
        type            empty;
    }
}


// ************************************************************************* //
