/*--------------------------------*- C++ -*----------------------------------*\
| =========                 |                                                 |
| \\      /  F ield         | foam-extend: Open Source CFD                    |
|  \\    /   O peration     | Version:     4.1                                |
|   \\  /    A nd           | Web:         http://www.foam-extend.org         |
|    \\/     M anipulation  |                                                 |
\*---------------------------------------------------------------------------*/
FoamFile
{
    version     2.0;
    format      ascii;
    class       cellScalarField;
    location    "38";
    object      T;
}
// * * * * * * * * * * * * * * * * * * * * * * * * * * * * * * * * * * * * * //

dimensions      [0 0 0 0 1 0 0];

internalField   nonuniform 
100
(
(4 -5.703630593e-17 1.624202108e-17)
(4 -1.225385024e-16 1.23344008e-17)
(4 -1.267707994e-16 2.607703312e-17)
(4 1.597609571e-16 2.871129689e-17)
(4 5.287153351e-17 1.603191676e-16)
(4 -4.851767074e-16 5.751742854e-17)
(4 4.417087282e-16 -7.158895997e-17)
(4 -4.715708578e-16 1.745521376e-16)
(4 8.708737845e-16 4.367724385e-17)
(4 -1.257670986e-15 -2.551391287e-17)
(4 9.22406499e-17 3.091143885e-17)
(4 1.319454378e-16 -1.891320459e-16)
(4 9.037121115e-16 1.988494211e-16)
(4 -5.158084342e-16 -7.170513491e-17)
(4 4.252624527e-16 -4.206199016e-17)
(4 -4.608724626e-16 2.249468223e-16)
(4 1.392554962e-16 5.346789728e-17)
(4 -6.736061166e-17 -6.272852968e-17)
(4 4.760945723e-18 1.830126088e-16)
(4 -4.039991022e-17 1.731881899e-17)
(4 1.861103699e-16 2.206967931e-16)
(4 -5.189828224e-16 -1.464523471e-16)
(4 6.604877922e-16 1.83231507e-16)
(4 -1.012649069e-15 -4.006096259e-17)
(4 8.321518535e-16 1.367282796e-16)
(4 -8.03184309e-16 3.046255969e-17)
(4 6.724345492e-16 -1.727576702e-16)
(4 -7.100455996e-16 3.349007635e-17)
(4 -1.391578517e-16 -2.891799814e-16)
(4 1.113147296e-16 -1.873052169e-16)
(4 6.360399753e-16 2.400736334e-16)
(4 -1.083185609e-15 -7.902431379e-17)
(4 9.586443745e-16 -1.36389019e-16)
(4 -1.259590471e-15 -1.749571443e-16)
(4 1.665988742e-15 -6.156637667e-17)
(4 -1.711487672e-15 -1.111581124e-16)
(4 1.334353967e-15 -9.414784997e-17)
(4 -8.139888092e-16 -7.374774162e-18)
(4 6.476421617e-16 2.30511596e-16)
(4 -1.916475748e-16 -2.843079449e-17)
(4 -9.537584769e-17 -8.469948658e-18)
(4 -1.590841931e-18 -1.536728996e-16)
(4 1.232822816e-16 -1.620030917e-16)
(4 -1.967089508e-16 2.614610143e-16)
(4 -3.70409787e-16 3.005583398e-17)
(4 8.974673159e-16 -1.811130761e-16)
(4 -8.768387491e-16 1.874090806e-16)
(4 6.13406685e-16 6.557211946e-16)
(4 1.552995901e-14 9.18573968e-15)
(4 1.62879593e-13 7.52960079e-14)
(4 1.420097606e-12 6.308002642e-13)
(4 1.151940393e-11 4.914664437e-12)
(4 8.7046887e-11 3.553811649e-11)
(4.000000001 6.09879383e-10 2.370917461e-10)
(4.000000005 3.942105025e-09 1.451702504e-09)
(4.000000028 2.339120043e-08 8.113341902e-09)
(4.000000158 1.268093412e-07 4.118289022e-08)
(4.000000818 6.255801921e-07 1.891118901e-07)
(4.000003864 2.800329443e-06 7.835757781e-07)
(4.000016619 1.135687971e-05 2.925902143e-06)
(4.000065059 4.171507017e-05 9.844619898e-06)
(4.000231944 0.0001388695024 2.986747457e-05)
(4.000754117 0.000419585304 8.180564605e-05)
(4.0022405 0.001152851315 0.0002025755591)
(4.006097577 0.002886976816 0.0004542074629)
(4.015242605 0.006605145505 0.0009233224721)
(4.03510109 0.01384119143 0.001703298574)
(4.074691467 0.02663180133 0.0028523879)
(4.147328008 0.04716605611 0.004333518992)
(4.270258426 0.07707204187 0.005960422859)
(4.462606491 0.1164669292 0.007388057622)
(4.741469281 0.1631202208 0.008177880888)
(5.116857122 0.2121940943 0.007935011229)
(5.587002053 0.2568978849 0.006469235748)
(6.135889884 0.2900233067 0.003904417406)
(6.734355156 0.3058846498 0.0006747192068)
(7.344830001 0.3019313433 -0.002601257176)
(7.92842127 0.2793997691 -0.005315983626)
(8.452107978 0.2427858054 -0.007053054887)
(8.893920969 0.1984196238 -0.007680601066)
(9.244888363 0.1527458071 -0.007335006618)
(9.507788126 0.1109208069 -0.006323020618)
(9.693748658 0.07609035717 -0.004997374924)
(9.8181286 0.04937562602 -0.003656380587)
(9.896896976 0.03034845463 -0.002492985961)
(9.944188231 0.01769124678 -0.001591666011)
(9.971139312 0.009793063636 -0.0009551732134)
(9.985736243 0.005153969548 -0.0005404268992)
(9.993258463 0.002581894498 -0.0002890223923)
(9.996951002 0.001232551073 -0.0001464298482)
(9.998679549 0.0005613380131 -7.041793704e-05)
(9.999452023 0.0002441562883 -3.220024721e-05)
(9.999781931 0.0001015299632 -1.402352501e-05)
(9.99991672 4.040646932e-05 -5.825370731e-06)
(9.999969455 1.540545302e-05 -2.311323816e-06)
(9.999989233 5.632366331e-06 -8.770709458e-07)
(9.999996349 1.976586783e-06 -3.186985735e-07)
(9.999998809 6.664311219e-07 -1.110209427e-07)
(9.999999625 2.160753412e-07 -3.711876302e-08)
(9.999999886 6.742989612e-08 -1.1923653e-08)
)
;

boundaryField
{
    left
    {
        type            dirichlet;
        value           uniform (4 0 0);
    }
    right
    {
        type            dirichlet;
        value           uniform (4 0 0);
    }
    sides
    {
        type            empty;
    }
}


// ************************************************************************* //
