/*--------------------------------*- C++ -*----------------------------------*\
| =========                 |                                                 |
| \\      /  F ield         | foam-extend: Open Source CFD                    |
|  \\    /   O peration     | Version:     4.1                                |
|   \\  /    A nd           | Web:         http://www.foam-extend.org         |
|    \\/     M anipulation  |                                                 |
\*---------------------------------------------------------------------------*/
FoamFile
{
    version     2.0;
    format      ascii;
    class       cellScalarField;
    location    "18.6";
    object      T;
}
// * * * * * * * * * * * * * * * * * * * * * * * * * * * * * * * * * * * * * //

dimensions      [0 0 0 0 1 0 0];

internalField   nonuniform 
100
(
(4 -5.703630593e-17 1.624202108e-17)
(4 -1.682825254e-16 3.627205954e-16)
(4 1.831135757e-16 -1.034289452e-16)
(4 -4.831969073e-17 -5.209774946e-17)
(4 -6.483618189e-18 -2.899157425e-17)
(4 -2.718352027e-16 -2.384170692e-16)
(4 7.143279314e-16 -9.667914536e-17)
(4 -3.735801859e-16 9.375075216e-17)
(4 7.880989804e-16 -1.285057953e-16)
(4 -1.351335487e-15 -4.530097083e-17)
(4 -1.725338545e-17 -1.320883467e-16)
(4 1.344588498e-15 -2.4682227e-17)
(4 -5.832412981e-16 -3.644835116e-16)
(4 5.400198253e-16 2.584664077e-16)
(4 2.187614194e-15 -3.884333216e-16)
(4 1.868972538e-16 -3.767854644e-17)
(4 1.032141877e-16 -1.817877448e-17)
(4 1.255531415e-14 7.575295252e-15)
(4 2.050673351e-13 1.258790283e-13)
(4 3.317745203e-12 2.011647259e-12)
(4 4.914246849e-11 2.799943571e-11)
(4.000000001 6.439029411e-10 3.532185237e-10)
(4.000000007 7.761693186e-09 4.070802869e-09)
(4.00000008 8.373511195e-08 4.113649568e-08)
(4.000000789 7.9542293e-07 3.659497268e-07)
(4.000006898 6.672746187e-06 2.841856598e-06)
(4.000052727 4.824526305e-05 1.844089719e-05)
(4.000342143 0.0002893732326 9.619235254e-05)
(4.001840622 0.001406771901 0.0003971921784)
(4.008141966 0.005518276069 0.001299003882)
(4.029725348 0.01757908796 0.003387025848)
(4.090469872 0.04597258218 0.007086142557)
(4.23245404 0.09986999875 0.01192284013)
(4.511070541 0.1822819164 0.01602662458)
(4.974758133 0.2824702327 0.01675129957)
(5.635373398 0.375185208 0.01243351128)
(6.447949611 0.4308158531 0.003925605212)
(7.317569339 0.4310177719 -0.005622101024)
(8.13305222 0.3783968026 -0.01269334716)
(8.807496475 0.2934216494 -0.01542577027)
(9.302423099 0.2021919424 -0.01420911763)
(9.626494185 0.1245143883 -0.0108056829)
(9.816836079 0.06889122415 -0.007040862587)
(9.917617886 0.03441669624 -0.004014004298)
(9.965949106 0.01559878529 -0.00203011616)
(9.987036024 0.006442869925 -0.0009201960898)
(9.995441986 0.002435511321 -0.0003768438054)
(9.998516065 0.0008460384844 -0.00014037358)
(9.999551398 0.0002711212396 -4.783831577e-05)
(9.999873721 8.044820945e-05 -1.499228731e-05)
(9.999966808 2.218093301e-05 -4.340863542e-06)
(9.999991831 5.701815432e-06 -1.16611008e-06)
(9.999998113 1.370902271e-06 -2.917773864e-07)
(9.99999959 3.092310054e-07 -6.824672239e-08)
(9.999999916 6.56298492e-08 -1.497238916e-08)
(9.999999984 1.314188961e-08 -3.090609768e-09)
(9.999999997 2.489365454e-09 -6.020303067e-10)
(9.999999999 4.471689695e-10 -1.10971395e-10)
(10 7.635753997e-11 -1.940711421e-11)
(10 1.242154408e-11 -3.228629803e-12)
(10 1.927954732e-12 -5.1195777e-13)
(10 2.823465624e-13 -7.828379924e-14)
(10 4.022063147e-14 -1.065770063e-14)
(10 8.625517595e-15 -2.931433545e-15)
(10 -4.189951644e-16 -4.876771239e-16)
(10 2.239115846e-16 -1.015204414e-16)
(10 -4.925007095e-16 3.715578823e-17)
(10 3.083135577e-16 -2.871685762e-16)
(10 -1.788654376e-16 -9.916431657e-17)
(10 2.055133561e-16 -6.692988684e-16)
(10 -1.501113286e-16 4.699074625e-16)
(10 -1.122323096e-16 -1.08591697e-16)
(10 8.945960449e-17 -1.355793754e-16)
(10 -4.971315214e-17 5.13882446e-16)
(10 -1.551732427e-16 -8.012483849e-17)
(10 1.464828742e-16 -4.707453737e-16)
(10 4.039849107e-17 1.686389651e-17)
(10 -2.573101868e-17 3.919540814e-16)
(10 4.476783377e-16 -2.315955678e-16)
(10 -2.244678433e-16 9.620769762e-17)
(10 -2.660384299e-16 3.045207722e-16)
(10 -3.710918477e-16 2.192278849e-16)
(10 -2.837191623e-18 -1.106004874e-16)
(10 -1.214284776e-16 2.490177649e-16)
(10 5.885498216e-17 -5.705346875e-16)
(10 5.452823445e-16 4.611313693e-16)
(10 -1.724532092e-16 1.887986173e-16)
(10 -8.705474035e-17 -2.741844867e-16)
(10 1.086440518e-16 2.116170035e-16)
(10 3.573599802e-16 -3.459961855e-16)
(10 3.174163243e-16 4.900682115e-16)
(10 3.333608927e-16 9.358132426e-17)
(10 -1.482193437e-16 2.428916427e-16)
(10 -3.572140237e-16 3.697005735e-16)
(10 -2.186558032e-17 -4.176856413e-16)
(10 1.316029459e-16 -5.806449778e-16)
(10 -3.294805064e-17 2.261760324e-16)
(10 -3.183020737e-16 -1.829758357e-16)
(10 2.144542841e-16 -2.765341246e-16)
(10 -9.428406322e-16 3.514727833e-15)
)
;

boundaryField
{
    left
    {
        type            dirichlet;
        value           uniform (4 0 0);
    }
    right
    {
        type            dirichlet;
        value           uniform (4 0 0);
    }
    sides
    {
        type            empty;
    }
}


// ************************************************************************* //
