/*--------------------------------*- C++ -*----------------------------------*\
| =========                 |                                                 |
| \\      /  F ield         | foam-extend: Open Source CFD                    |
|  \\    /   O peration     | Version:     4.1                                |
|   \\  /    A nd           | Web:         http://www.foam-extend.org         |
|    \\/     M anipulation  |                                                 |
\*---------------------------------------------------------------------------*/
FoamFile
{
    version     2.0;
    format      ascii;
    class       cellScalarField;
    location    "31";
    object      T;
}
// * * * * * * * * * * * * * * * * * * * * * * * * * * * * * * * * * * * * * //

dimensions      [0 0 0 0 1 0 0];

internalField   nonuniform 
100
(
(4 -5.703630593e-17 1.624202108e-17)
(4 -8.570505367e-17 1.466078426e-16)
(4 -1.341499932e-16 2.035722716e-16)
(4 3.365581938e-17 -6.172061185e-17)
(4 3.174088617e-17 1.963493628e-16)
(4 -3.640230298e-16 -9.530887897e-17)
(4 2.522726542e-16 1.165053474e-16)
(4 -4.221127129e-16 -1.203838448e-16)
(4 9.480132495e-16 7.996182119e-17)
(4 -1.364386627e-15 -5.842196539e-17)
(4 3.612772e-16 2.935840067e-17)
(4 -2.761252212e-16 -1.87522059e-17)
(4 1.063916037e-15 -4.134397135e-17)
(4 -5.875142537e-16 4.556788565e-17)
(4 3.44208109e-16 -1.665499195e-16)
(4 7.051601791e-18 2.05170015e-17)
(4 -1.82926048e-16 -2.931868285e-17)
(4 -2.36903482e-18 -4.781618986e-17)
(4 6.366520747e-17 5.839327719e-17)
(4 -8.775794495e-17 1.747666744e-16)
(4 -2.210228938e-16 2.809481623e-17)
(4 9.783383971e-17 -1.623940192e-16)
(4 8.061604177e-18 -1.244821799e-16)
(4 -2.175170385e-16 -6.28763715e-17)
(4 2.027449686e-17 -1.310350918e-16)
(4 -3.658000001e-17 1.970623392e-16)
(4 4.365790985e-17 -3.695377352e-17)
(4 -1.675890019e-16 -1.569623453e-16)
(4 -2.260352733e-16 -7.530006016e-17)
(4 4.658843802e-16 -1.176307639e-16)
(4 -3.340875812e-17 1.674063618e-16)
(4 6.074978994e-17 2.679340292e-16)
(4 -2.330484343e-16 2.001079518e-17)
(4 -4.388118204e-16 1.587803075e-17)
(4 9.461335459e-16 1.797082071e-17)
(4 -1.062689718e-15 2.166219637e-16)
(4 2.678447141e-15 2.27373609e-15)
(4 4.152485099e-14 2.246923065e-14)
(4 4.633866915e-13 2.298690907e-13)
(4 4.624450045e-12 2.219640838e-12)
(4 4.302604076e-11 1.981337299e-11)
(4 3.70047911e-10 1.626970908e-10)
(4.000000003 2.924815057e-09 1.221030527e-09)
(4.000000023 2.111155703e-08 8.31290889e-09)
(4.000000158 1.381274223e-07 5.08794197e-08)
(4.000000972 8.123910733e-07 2.773582993e-07)
(4.000005391 4.262392713e-06 1.336330311e-06)
(4.000026729 1.984062209e-05 5.66299363e-06)
(4.000118135 8.170812705e-05 2.106463572e-05)
(4.000465127 0.0002976139762 6.87859063e-05)
(4.001633453 0.0009602689945 0.0001974859185)
(4.005130316 0.002752196615 0.0004995689396)
(4.014462613 0.007030819668 0.001115929217)
(4.036747386 0.01606964398 0.002205154672)
(4.084536495 0.03298789345 0.003858286049)
(4.176910113 0.06105277267 0.005973600368)
(4.338430389 0.1022491791 0.008158083948)
(4.594802111 0.1555066802 0.009751301158)
(4.965408393 0.2154902983 0.01002602923)
(5.454870511 0.272943978 0.008509072848)
(6.047226157 0.3169493768 0.005257601962)
(6.705989282 0.3383846389 0.0009162874335)
(7.381018474 0.3330465967 -0.003502822592)
(8.019969349 0.3029584925 -0.007008710936)
(8.580005261 0.2553296528 -0.008983484706)
(9.035591925 0.1998326843 -0.009332939373)
(9.380331985 0.1455597987 -0.00840281227)
(9.623494494 0.09888897772 -0.006752696918)
(9.783696222 0.06278712452 -0.004922859093)
(9.882472194 0.03733020097 -0.003289252706)
(9.939576093 0.02082267876 -0.002028733119)
(9.970585876 0.01091666668 -0.001161276498)
(9.98643159 0.005388706444 -0.0006195615168)
(9.994063655 0.002508758539 -0.0003091785548)
(9.997534244 0.001103388469 -0.0001447533064)
(9.999026651 0.0004591837437 -6.37530062e-05)
(9.999634458 0.0001810945245 -2.647678311e-05)
(9.999869254 6.778555542e-05 -1.039127535e-05)
(9.999955412 2.411654881e-05 -3.861752658e-06)
(9.999985486 8.166840202e-06 -1.361521613e-06)
(9.999995485 2.636033032e-06 -4.561956569e-07)
(9.999998657 8.120548041e-07 -1.455067777e-07)
(9.999999617 2.390675763e-07 -4.424888011e-08)
(9.999999895 6.734475564e-08 -1.284863003e-08)
(9.999999973 1.817463551e-08 -3.567513723e-09)
(9.999999993 4.704592367e-09 -9.484644445e-10)
(9.999999998 1.169428142e-09 -2.41763256e-10)
(10 2.794506929e-10 -5.915878983e-11)
(10 6.426741413e-11 -1.391283057e-11)
(10 1.424144279e-11 -3.149981913e-12)
(10 3.04075888e-12 -6.866227573e-13)
(10 6.257055644e-13 -1.447612423e-13)
(10 1.235443319e-13 -2.956996977e-14)
(10 2.489301337e-14 -4.384047626e-15)
(10 9.257679176e-15 -2.124943626e-15)
(10 3.391072357e-16 3.554869544e-16)
(10 -2.792779257e-16 6.775311989e-17)
(10 -2.803363319e-16 4.540830677e-16)
(10 -2.741440388e-17 -4.00177836e-16)
(10 -5.97142228e-16 3.439746847e-15)
)
;

boundaryField
{
    left
    {
        type            dirichlet;
        value           uniform (4 0 0);
    }
    right
    {
        type            dirichlet;
        value           uniform (4 0 0);
    }
    sides
    {
        type            empty;
    }
}


// ************************************************************************* //
