/*--------------------------------*- C++ -*----------------------------------*\
| =========                 |                                                 |
| \\      /  F ield         | foam-extend: Open Source CFD                    |
|  \\    /   O peration     | Version:     4.1                                |
|   \\  /    A nd           | Web:         http://www.foam-extend.org         |
|    \\/     M anipulation  |                                                 |
\*---------------------------------------------------------------------------*/
FoamFile
{
    version     2.0;
    format      ascii;
    class       cellScalarField;
    location    "3";
    object      T;
}
// * * * * * * * * * * * * * * * * * * * * * * * * * * * * * * * * * * * * * //

dimensions      [0 0 0 0 1 0 0];

internalField   nonuniform 10((3.999998829 -2.741822767e-06 1.50901092e-06) (4.000106038 0.0001809549477 4.053747365e-05) (4.00057674 -0.0002451918789 0.0008993970541) (4.035776928 0.05733130906 0.03772911984) (4.507687858 0.4813382164 0.1085095433) (6.07236309 1.036009624 0.03210074898) (8.115682703 0.9033220469 -0.08141878092) (9.413304205 0.3974807434 -0.06844709939) (9.876107693 0.1036383977 -0.02371051495) (9.980933599 0.01826223283 -0.004900804419));

boundaryField
{
    left
    {
        type            dirichlet;
        value           uniform (4 0 0);
    }
    right
    {
        type            dirichlet;
        value           uniform (4 0 0);
    }
    sides
    {
        type            empty;
    }
}


// ************************************************************************* //
