/*--------------------------------*- C++ -*----------------------------------*\
| =========                 |                                                 |
| \\      /  F ield         | foam-extend: Open Source CFD                    |
|  \\    /   O peration     | Version:     4.1                                |
|   \\  /    A nd           | Web:         http://www.foam-extend.org         |
|    \\/     M anipulation  |                                                 |
\*---------------------------------------------------------------------------*/
FoamFile
{
    version     2.0;
    format      ascii;
    class       cellScalarField;
    location    "49";
    object      T;
}
// * * * * * * * * * * * * * * * * * * * * * * * * * * * * * * * * * * * * * //

dimensions      [0 0 0 0 1 0 0];

internalField   nonuniform 
100
(
(4 -5.703630593e-17 1.624202108e-17)
(4 -1.521815917e-16 2.848593554e-17)
(4 6.687878077e-17 -1.434239256e-16)
(4 -1.100828454e-16 -9.954905731e-17)
(4 5.211437724e-17 -1.336788015e-16)
(4 -3.175466898e-16 -2.262674383e-17)
(4 3.634978736e-16 -6.327700145e-17)
(4 -4.53850302e-16 1.684948472e-16)
(4 7.421899758e-16 9.095336329e-17)
(4 -1.44319978e-15 -4.317131484e-17)
(4 2.126455673e-16 2.307779242e-16)
(4 -1.396860238e-16 -4.359725989e-17)
(4 8.463489769e-16 -9.045482824e-17)
(4 -6.389914351e-16 3.210508475e-16)
(4 3.791924537e-16 -8.989277187e-17)
(4 2.170810841e-16 4.264613981e-18)
(4 -7.094546981e-17 3.706449597e-17)
(4 3.33479882e-17 2.174118739e-17)
(4 7.369689242e-18 2.518900248e-16)
(4 -2.151226628e-16 8.900783906e-17)
(4 6.223538412e-17 -1.789897125e-16)
(4 2.712842186e-17 -7.99780586e-17)
(4 5.865932561e-18 -3.169182202e-17)
(4 1.024749773e-16 5.166897107e-17)
(4 -2.165078333e-16 8.728803033e-17)
(4 -1.111273631e-16 2.681572049e-16)
(4 -4.19843615e-17 3.168814652e-17)
(4 -1.361529275e-16 7.508139989e-18)
(4 -2.676183059e-16 3.609134267e-16)
(4 3.490633125e-16 1.749610466e-16)
(4 2.338185485e-17 -1.110231146e-16)
(4 8.418439937e-17 5.7277906e-17)
(4 -1.845564822e-16 -2.013127455e-17)
(4 -4.035430688e-16 -1.689253968e-17)
(4 4.013736795e-16 2.999368444e-18)
(4 -4.594538622e-16 1.038150076e-16)
(4 9.431018235e-16 -4.379373381e-17)
(4 -7.857332041e-16 -1.117826846e-16)
(4 2.520752102e-16 3.162399692e-17)
(4 -4.69244703e-17 -1.176759993e-16)
(4 -2.663269152e-16 -2.982285076e-17)
(4 -1.604141375e-16 -1.045199483e-16)
(4 4.968919289e-17 -9.839699192e-17)
(4 -2.265450559e-17 -1.112967014e-16)
(4 -3.189767353e-16 -1.034269802e-16)
(4 8.175090739e-16 -8.912553673e-17)
(4 -7.830252786e-16 3.454180789e-16)
(4 8.795061876e-16 9.605619573e-17)
(4 -9.425674372e-16 -3.729566013e-17)
(4 5.662129747e-16 1.325422457e-16)
(4 -2.120603363e-16 -7.270996061e-17)
(4 -9.412665879e-17 1.432954365e-17)
(4 2.504089745e-17 -2.222069262e-17)
(4 -3.36148428e-18 -5.830596272e-18)
(4 -1.823547807e-16 2.702784034e-16)
(4 -2.819671849e-17 1.361290977e-16)
(4 8.422536294e-17 2.295225964e-16)
(4 -2.339568267e-16 9.321391676e-17)
(4 3.733436077e-17 -5.42377203e-17)
(4 -2.039784961e-17 -9.130531693e-18)
(4 2.004499504e-18 -2.656355115e-17)
(4 -6.717372798e-17 3.377888913e-17)
(4 -1.83038718e-16 -7.313132619e-17)
(4 -1.486140753e-17 -3.867096205e-17)
(4 -7.793879501e-17 -1.366924235e-16)
(4 2.303691181e-15 1.526403508e-16)
(4 9.905720845e-15 5.252881806e-15)
(4 8.661650892e-14 3.52827044e-14)
(4 6.118312877e-13 2.414440046e-13)
(4 4.086617616e-12 1.551975159e-12)
(4 2.565002709e-11 9.327251935e-12)
(4 1.505849173e-10 5.229311593e-11)
(4.000000001 8.252067625e-10 2.727503896e-10)
(4.000000005 4.211258347e-09 1.320262409e-09)
(4.000000027 1.997484735e-08 5.919629511e-09)
(4.000000123 8.793144918e-08 2.455108176e-08)
(4.000000525 3.589195409e-07 9.410911213e-08)
(4.000002084 1.357919654e-06 3.333046393e-07)
(4.000007697 4.762266543e-06 1.090811923e-06)
(4.000026444 1.548919699e-05 3.300298327e-06)
(4.000084585 4.675969932e-05 9.237444784e-06)
(4.000252179 0.0001311594319 2.393935759e-05)
(4.000701676 0.0003422516094 5.749543251e-05)
(4.001824842 0.0008319436128 0.0001280894266)
(4.004443017 0.001886516054 0.000264925048)
(4.010144641 0.003996479629 0.0005090686564)
(4.021760821 0.007921048097 0.000909281285)
(4.043933215 0.01470991338 0.001510028925)
(4.083639599 0.02563218858 0.00233104769)
(4.150444801 0.04196839307 0.003342299245)
(4.256188066 0.0646573286 0.004443458432)
(4.413862974 0.09385400646 0.005460183292)
(4.635630739 0.1285259441 0.006167054565)
(4.930209754 0.1662559355 0.006338096684)
(5.300206005 0.203394694 0.005812975061)
(5.740145329 0.2356072206 0.004556478103)
(6.235914657 0.2587126968 0.002687152666)
(6.765985162 0.2695905229 0.0004605205565)
(7.304273947 0.266877172 -0.00179037198)
(7.823995714 0.251238243 -0.003737342893)
)
;

boundaryField
{
    left
    {
        type            dirichlet;
        value           uniform (4 0 0);
    }
    right
    {
        type            dirichlet;
        value           uniform (4 0 0);
    }
    sides
    {
        type            empty;
    }
}


// ************************************************************************* //
