/*--------------------------------*- C++ -*----------------------------------*\
| =========                 |                                                 |
| \\      /  F ield         | foam-extend: Open Source CFD                    |
|  \\    /   O peration     | Version:     4.1                                |
|   \\  /    A nd           | Web:         http://www.foam-extend.org         |
|    \\/     M anipulation  |                                                 |
\*---------------------------------------------------------------------------*/
FoamFile
{
    version     2.0;
    format      ascii;
    class       cellScalarField;
    location    "6.8";
    object      T;
}
// * * * * * * * * * * * * * * * * * * * * * * * * * * * * * * * * * * * * * //

dimensions      [0 0 0 0 1 0 0];

internalField   nonuniform 
100
(
(4 -5.442558842e-15 -1.786399388e-14)
(4 5.952644131e-13 1.356312913e-12)
(4 -2.886592761e-12 -3.461866532e-11)
(4 4.300170122e-10 1.238637939e-09)
(4.000000021 2.245367902e-08 -5.308517951e-10)
(4.000000175 1.919636591e-07 3.662292633e-07)
(4.000008916 1.221146498e-05 6.405008322e-06)
(4.000122043 0.0001210999116 6.911829949e-05)
(4.001666855 0.001979990496 0.001232196483)
(4.02114038 0.02247339911 0.009022165086)
(4.148236305 0.1201754882 0.02941800204)
(4.600739242 0.3491208526 0.04728980262)
(5.57582628 0.6182826389 0.03298819289)
(6.948487101 0.7214501987 -0.008279367273)
(8.283491682 0.5869406143 -0.03771543184)
(9.220707454 0.3481479405 -0.03760432153)
(9.713351782 0.156333204 -0.02261749981)
(9.913555268 0.05492061194 -0.009644412064)
(9.978289216 0.01554180512 -0.003137005575)
(9.995381327 0.003636037373 -0.0008152541101)
(9.99915371 0.0007195676189 -0.0001751446295)
(9.999864331 0.0001228952139 -3.194852157e-05)
(9.999980699 1.843163622e-05 -5.0569394e-06)
(9.999997532 2.464121641e-06 -7.071150724e-07)
(9.999999713 2.974535257e-07 -8.866331346e-08)
(9.999999969 3.27820242e-08 -1.009477747e-08)
(9.999999997 3.329971888e-09 -1.054761812e-09)
(10 3.143343979e-10 -1.02053778e-10)
(10 2.777058085e-11 -9.215906699e-12)
(10 2.308482941e-12 -7.816134743e-13)
(10 1.839644715e-13 -6.201476106e-14)
(10 1.386038896e-14 -5.308096119e-15)
(10 -9.730419048e-16 7.467206808e-16)
(10 -6.571594403e-17 2.29460642e-16)
(10 -5.950154854e-16 -2.273178812e-16)
(10 7.759698054e-16 1.193247624e-16)
(10 -1.452058635e-15 3.135103486e-17)
(10 9.409394492e-16 5.805340244e-16)
(10 -1.261611635e-15 -5.59774423e-17)
(10 2.120028682e-15 -3.075345248e-16)
(10 -5.389779618e-16 2.871528181e-17)
(10 3.134351004e-16 -4.059014985e-16)
(10 8.357398416e-17 2.801210721e-17)
(10 3.827125322e-16 -3.219193261e-16)
(10 -1.443982408e-16 1.182029581e-16)
(10 -1.66562031e-16 3.108307913e-16)
(10 -1.303307076e-16 4.117346453e-17)
(10 -1.577711781e-16 1.54428449e-16)
(10 3.403567847e-16 2.018027061e-16)
(10 -2.237091616e-16 -2.282165886e-16)
(10 -5.833957912e-17 1.26863986e-16)
(10 -4.113201061e-16 3.103644215e-16)
(10 -2.804509182e-16 1.823051359e-16)
(10 -2.177169233e-17 -7.571649202e-17)
(10 2.115558609e-16 -8.349992087e-17)
(10 -6.780030115e-17 1.549248937e-16)
(10 -1.820881837e-16 -6.651417344e-17)
(10 -2.315712357e-16 1.288297897e-17)
(10 -3.604858547e-17 7.797505717e-16)
(10 -1.959022461e-16 2.966755624e-16)
(10 -4.527813795e-16 2.84229793e-16)
(10 8.517485773e-18 3.109506195e-17)
(10 -5.821685624e-17 2.011315598e-16)
(10 -1.57599631e-16 4.256786583e-17)
(10 -7.511947905e-17 -4.617334172e-16)
(10 2.315652255e-16 -3.373756552e-16)
(10 1.914212538e-16 -5.530711089e-16)
(10 -3.754423464e-17 -3.116279267e-16)
(10 4.619326547e-17 3.20197965e-16)
(10 -4.965320512e-17 -5.651813039e-18)
(10 3.232626165e-16 3.50258352e-16)
(10 -4.601928857e-16 -7.640301957e-17)
(10 2.618813494e-16 2.949202433e-17)
(10 -1.365865064e-16 -1.744219838e-17)
(10 2.188364463e-16 -5.564608176e-16)
(10 1.000862123e-15 -5.078880214e-16)
(10 -1.354184949e-16 7.67388769e-17)
(10 -4.236895985e-18 2.400961845e-18)
(10 -1.325615648e-19 7.511991338e-20)
(10 -4.147510002e-21 2.350308647e-21)
(10 -1.297649077e-22 7.353510527e-23)
(10 -4.060009803e-24 2.300724083e-24)
(10 -1.270272518e-25 7.198373197e-26)
(10 -3.974355601e-27 2.252185608e-27)
(10 -1.243473524e-28 7.046508807e-29)
(10 -3.890508449e-30 2.204671151e-30)
(10 -1.217239909e-31 6.897848307e-32)
(10 -3.808430225e-33 2.158159109e-33)
(10 -1.191559747e-34 6.752324105e-35)
(10 -3.728083609e-36 2.112628333e-36)
(10 -1.16642136e-37 6.609870033e-38)
(10 -3.649432069e-39 2.068058123e-39)
(10 -1.141813318e-40 6.470421321e-41)
(10 -3.572439844e-42 2.024428212e-42)
(10 -1.117724433e-43 6.333914564e-44)
(10 -3.497071927e-45 1.981718763e-45)
(10 -1.094143753e-46 6.200287697e-47)
(10 -3.42329405e-48 1.939910357e-48)
(10 -1.071060555e-49 6.069479961e-50)
(10 -1.214835114e-15 4.044165035e-15)
)
;

boundaryField
{
    left
    {
        type            dirichlet;
        value           uniform (4 0 0);
    }
    right
    {
        type            dirichlet;
        value           uniform (4 0 0);
    }
    sides
    {
        type            empty;
    }
}


// ************************************************************************* //
