/*--------------------------------*- C++ -*----------------------------------*\
| =========                 |                                                 |
| \\      /  F ield         | foam-extend: Open Source CFD                    |
|  \\    /   O peration     | Version:     4.1                                |
|   \\  /    A nd           | Web:         http://www.foam-extend.org         |
|    \\/     M anipulation  |                                                 |
\*---------------------------------------------------------------------------*/
FoamFile
{
    version     2.0;
    format      ascii;
    class       cellScalarField;
    location    "20.8";
    object      T;
}
// * * * * * * * * * * * * * * * * * * * * * * * * * * * * * * * * * * * * * //

dimensions      [0 0 0 0 1 0 0];

internalField   nonuniform 
100
(
(4 -5.703630593e-17 1.624202108e-17)
(4 1.436705102e-17 7.832932626e-18)
(4 -1.910454941e-16 -1.14020427e-16)
(4 -6.093639657e-17 -1.917684175e-16)
(4 2.21778039e-16 -1.388401264e-16)
(4 -5.492047713e-16 2.306970231e-17)
(4 3.88787622e-16 5.696237266e-17)
(4 -3.748140429e-16 -3.128526562e-17)
(4 7.64642837e-16 2.510778962e-18)
(4 -1.324660224e-15 -1.230145409e-16)
(4 2.667857473e-17 3.548752181e-18)
(4 1.198651625e-15 -2.725853227e-17)
(4 -5.830347088e-16 -3.467597266e-16)
(4 8.897005009e-17 -1.033919793e-16)
(4 4.981730127e-16 -1.296793822e-17)
(4 -5.060145927e-16 1.819322361e-16)
(4 2.681817213e-16 -2.781797166e-16)
(4 5.370371533e-17 -7.667457937e-17)
(4 2.34609874e-15 -7.804075715e-17)
(4 1.281706138e-15 5.518171188e-17)
(4 1.435243579e-15 2.537573979e-15)
(4 6.678004114e-14 4.118878702e-14)
(4 1.014791625e-12 5.929278916e-13)
(4 1.406081365e-11 7.852972358e-12)
(4 1.763261142e-10 9.450030449e-11)
(4.000000002 2.026329829e-09 1.039501195e-09)
(4.00000002 2.109158332e-08 1.021799111e-08)
(4.000000196 1.959585803e-07 8.916087779e-08)
(4.000001684 1.618897482e-06 6.858198554e-07)
(4.000012805 1.171552314e-05 4.526286178e-06)
(4.000084484 7.232079725e-05 2.486063949e-05)
(4.00047403 0.0003727682736 0.0001116476693)
(4.00223806 0.001590285622 0.0004081492435)
(4.008882526 0.005622035957 0.001218113887)
(4.029794223 0.01657863745 0.002983790333)
(4.085199407 0.04113698185 0.006026049714)
(4.209831111 0.08668324279 0.01004731608)
(4.44988467 0.1564995601 0.01375802815)
(4.84899009 0.2440964455 0.01517861869)
(5.426043144 0.331424673 0.01274304807)
(6.156651934 0.3944661363 0.006499063227)
(6.971822218 0.4142018542 -0.001630440511)
(7.778027916 0.3859654135 -0.008859195)
(8.488636678 0.3209119066 -0.01306635406)
(9.049676523 0.2392919867 -0.0137222086)
(9.448321752 0.1607823186 -0.01172777753)
(9.70438008 0.09778155065 -0.008565227099)
(9.853685073 0.05405275034 -0.005480017109)
(9.933030693 0.0272684278 -0.003118724947)
(9.971607973 0.01260196898 -0.001595673952)
(9.988829513 0.005354644654 -0.0007399340335)
(9.995913002 0.002099154793 -0.0003130109073)
(9.998606378 0.0007617670128 -0.000121461295)
(9.999556113 0.0002567111816 -4.344249734e-05)
(9.999867633 8.05814913e-05 -1.438302347e-05)
(9.999962961 2.362986411e-05 -4.425170213e-06)
(9.999990253 6.491376813e-06 -1.269698295e-06)
(9.999997582 1.675039265e-06 -3.408731336e-07)
(9.999999433 4.070417652e-07 -8.588934133e-08)
(9.999999874 9.337785653e-08 -2.03698062e-08)
(9.999999974 2.027021452e-08 -4.559388301e-09)
(9.999999995 4.173070548e-09 -9.656060578e-10)
(9.999999999 8.165181446e-10 -1.939582312e-10)
(10 1.52154956e-10 -3.703649219e-11)
(10 2.705511108e-11 -6.736265965e-12)
(10 4.597949803e-12 -1.169482967e-12)
(10 7.434668992e-13 -1.945994551e-13)
(10 1.160771834e-13 -3.004087802e-14)
(10 1.905724646e-14 -4.739433463e-15)
(10 3.676342209e-15 -1.84761744e-15)
(10 -9.591282597e-16 1.161945459e-15)
(10 1.013129196e-17 -2.911490471e-16)
(10 1.292941813e-16 -2.408458727e-16)
(10 2.838804648e-16 3.549240225e-16)
(10 -4.395908354e-16 8.195646986e-16)
(10 1.58329022e-16 3.931804617e-16)
(10 -4.045552033e-16 -3.344967581e-16)
(10 -5.251457554e-18 -6.424366417e-16)
(10 3.873236397e-16 -4.404936859e-16)
(10 -9.022457213e-17 -1.797356615e-16)
(10 2.616262249e-16 8.752788936e-18)
(10 -3.31973077e-18 3.396379889e-16)
(10 2.542600831e-17 -4.446467546e-16)
(10 1.624637059e-16 -8.235128428e-16)
(10 1.072700029e-16 -7.875280359e-17)
(10 5.297660185e-16 -3.613813467e-16)
(10 -1.51564253e-16 7.089630408e-16)
(10 6.51365386e-17 5.535485406e-17)
(10 6.666923881e-17 6.722252547e-16)
(10 -2.112129529e-16 1.866467219e-16)
(10 -2.474532486e-16 -1.746275283e-16)
(10 -9.959119245e-18 1.033820864e-16)
(10 -1.074283574e-18 4.328199209e-17)
(10 -7.541935336e-17 -7.226625792e-17)
(10 2.922578628e-16 2.950505566e-16)
(10 5.408256248e-17 -8.862796784e-17)
(10 -2.081320075e-16 1.654867429e-16)
(10 -3.068728913e-16 5.309150956e-16)
(10 2.275259443e-16 -2.125999779e-16)
(10 -2.802165412e-16 3.412371605e-15)
)
;

boundaryField
{
    left
    {
        type            dirichlet;
        value           uniform (4 0 0);
    }
    right
    {
        type            dirichlet;
        value           uniform (4 0 0);
    }
    sides
    {
        type            empty;
    }
}


// ************************************************************************* //
