/*--------------------------------*- C++ -*----------------------------------*\
| =========                 |                                                 |
| \\      /  F ield         | foam-extend: Open Source CFD                    |
|  \\    /   O peration     | Version:     4.1                                |
|   \\  /    A nd           | Web:         http://www.foam-extend.org         |
|    \\/     M anipulation  |                                                 |
\*---------------------------------------------------------------------------*/
FoamFile
{
    version     2.0;
    format      ascii;
    class       cellScalarField;
    location    "3.3";
    object      T;
}
// * * * * * * * * * * * * * * * * * * * * * * * * * * * * * * * * * * * * * //

dimensions      [0 0 0 0 1 0 0];

internalField   nonuniform 
100
(
(3.999999944 -5.903344949e-07 -4.742047312e-07)
(4.000013939 3.738859238e-05 3.258622235e-05)
(4.000367308 0.0001508159982 -7.278839038e-05)
(4.005778699 0.009558096345 0.01058308552)
(4.16517742 0.1961661919 0.0713987508)
(5.068178635 0.736245855 0.08846200118)
(6.920503057 1.028585871 -0.02234273276)
(8.699546597 0.691087477 -0.08125591667)
(9.628671991 0.2619766964 -0.0485231946)
(9.924804607 0.06359246768 -0.01485060254)
(9.988514303 0.01096891257 -0.002946185348)
(9.998599701 0.001456902997 -0.0004294744651)
(9.99985741 0.0001580297744 -4.977800852e-05)
(9.999987444 1.46059541e-05 -4.835333611e-06)
(9.999999018 1.186483885e-06 -4.083309758e-07)
(9.99999993 8.668475214e-08 -3.077925272e-08)
(9.999999995 5.79655811e-09 -2.11191059e-09)
(10 3.596065285e-10 -1.338905244e-10)
(10 2.091906317e-11 -7.934008858e-12)
(10 1.151731588e-12 -4.437796276e-13)
(10 5.853368509e-14 -2.322302268e-14)
(10 1.760274788e-15 -4.671553247e-16)
(10 1.50058021e-17 -1.553867242e-16)
(10 1.68863497e-16 2.878801669e-16)
(10 -1.295280008e-16 -5.232887563e-16)
(10 7.388360361e-16 3.008075747e-17)
(10 -1.041056188e-15 -1.6964735e-16)
(10 1.767412989e-15 -7.841887009e-16)
(10 2.399476282e-16 -2.029664392e-16)
(10 1.700833171e-16 -2.870528483e-16)
(10 2.828913296e-17 5.170649294e-17)
(10 -1.457223774e-16 -3.762619614e-16)
(10 4.130208828e-17 4.553107299e-16)
(10 -1.080810321e-16 -2.660970243e-18)
(10 4.231710748e-16 5.910967791e-16)
(10 -2.706746473e-16 1.292976292e-16)
(10 2.353702228e-16 1.995407413e-16)
(10 -2.666489959e-16 -2.68807183e-17)
(10 1.364853921e-16 1.749757891e-17)
(10 -2.188385902e-16 5.564619917e-16)
(10 -1.000862169e-15 5.078880463e-16)
(10 1.354184939e-16 -7.673887637e-17)
(10 4.236895964e-18 -2.400961834e-18)
(10 1.325615644e-19 -7.511991314e-20)
(10 4.147509994e-21 -2.350308642e-21)
(10 1.297649075e-22 -7.353510517e-23)
(10 4.060009799e-24 -2.300724081e-24)
(10 1.270272517e-25 -7.198373192e-26)
(10 3.974355599e-27 -2.252185607e-27)
(10 1.243473524e-28 -7.046508805e-29)
(10 3.890508449e-30 -2.204671151e-30)
(10 1.217239909e-31 -6.897848307e-32)
(10 3.808430225e-33 -2.158159109e-33)
(10 1.191559747e-34 -6.752324105e-35)
(10 3.728083609e-36 -2.112628333e-36)
(10 1.16642136e-37 -6.609870033e-38)
(10 3.649432069e-39 -2.068058123e-39)
(10 1.141813318e-40 -6.470421321e-41)
(10 3.572439844e-42 -2.024428212e-42)
(10 1.117724433e-43 -6.333914564e-44)
(10 3.497071927e-45 -1.981718763e-45)
(10 1.094143753e-46 -6.200287697e-47)
(10 3.42329405e-48 -1.939910357e-48)
(10 1.071060555e-49 -6.06947996e-50)
(10 3.351072668e-51 -1.898983984e-51)
(10 1.048464344e-52 -5.941431879e-53)
(10 3.280374942e-54 -1.858921037e-54)
(10 1.026344846e-55 -5.81608523e-56)
(10 3.211168727e-57 -1.819703297e-57)
(10 1.004692003e-58 -5.693383017e-59)
(10 3.143422551e-60 -1.781312932e-60)
(10 9.834959666e-62 -5.573269436e-62)
(10 3.077105602e-63 -1.743732479e-63)
(10 9.627470958e-65 -5.455689847e-65)
(10 3.012187704e-66 -1.706944839e-66)
(10 9.424359459e-68 -5.340590726e-68)
(10 2.948639294e-69 -1.670933256e-69)
(10 9.225532609e-71 -5.227919617e-71)
(10 2.886431388e-72 -1.635681307e-72)
(10 9.030899646e-74 -5.117625083e-74)
(10 2.825535561e-75 -1.601172878e-75)
(10 8.840371532e-77 -5.009656661e-77)
(10 2.765923927e-78 -1.56739217e-78)
(10 8.653860994e-80 -4.9039649e-80)
(10 2.7075692e-81 -1.534323723e-81)
(10 8.471282852e-83 -4.800501559e-83)
(10 2.650444867e-84 -1.501952528e-84)
(10 8.29255495e-86 -4.699220162e-86)
(10 2.594525635e-87 -1.470264293e-87)
(10 8.117600176e-89 -4.600077202e-89)
(10 2.539788329e-90 -1.43924597e-90)
(10 7.946350341e-92 -4.503034411e-92)
(10 2.486213523e-93 -1.408886712e-93)
(10 7.778752897e-95 -4.408062693e-95)
(10 2.433788256e-96 -1.379179458e-96)
(10 7.614781751e-98 -4.315148418e-98)
(10 2.38251027e-99 -1.350123392e-99)
(10 7.454453601e-101 -4.224302886e-101)
(10 2.33239422e-102 -1.321727538e-102)
(10 -2.188819498e-16 3.974290836e-15)
)
;

boundaryField
{
    left
    {
        type            dirichlet;
        value           uniform (4 0 0);
    }
    right
    {
        type            dirichlet;
        value           uniform (4 0 0);
    }
    sides
    {
        type            empty;
    }
}


// ************************************************************************* //
