/*--------------------------------*- C++ -*----------------------------------*\
| =========                 |                                                 |
| \\      /  F ield         | foam-extend: Open Source CFD                    |
|  \\    /   O peration     | Version:     4.1                                |
|   \\  /    A nd           | Web:         http://www.foam-extend.org         |
|    \\/     M anipulation  |                                                 |
\*---------------------------------------------------------------------------*/
FoamFile
{
    version     2.0;
    format      ascii;
    class       cellScalarField;
    location    "4.1";
    object      T;
}
// * * * * * * * * * * * * * * * * * * * * * * * * * * * * * * * * * * * * * //

dimensions      [0 0 0 0 1 0 0];

internalField   nonuniform 
100
(
(4.000000005 1.660375479e-08 1.221890253e-08)
(3.999999992 -4.305899822e-07 -2.764587156e-07)
(4.000008035 1.956519882e-05 1.731325508e-05)
(4.00022752 0.0001710437638 1.795993863e-05)
(4.002841801 0.003945461035 0.004133426262)
(4.070991744 0.0864922677 0.03664781615)
(4.545804342 0.4284867363 0.07920890021)
(5.853633369 0.8549862737 0.03769103199)
(7.645916205 0.865272622 -0.04609051606)
(9.040077405 0.508013594 -0.06347205584)
(9.716151707 0.1911072679 -0.03420274675)
(9.937025579 0.05002120025 -0.01101116528)
(9.989071132 0.009765221268 -0.002459341981)
(9.998455865 0.001504794417 -0.0004163792397)
(9.99981616 0.0001913976556 -5.676287998e-05)
(9.99998103 2.080103854e-05 -6.506070618e-06)
(9.999998265 1.983990695e-06 -6.472656101e-07)
(9.999999857 1.69569183e-07 -5.725090961e-08)
(9.999999989 1.320172562e-08 -4.586089648e-09)
(9.999999999 9.485738538e-10 -3.375618176e-10)
(10 6.357415725e-11 -2.309612355e-11)
(10 4.003782039e-12 -1.482486305e-12)
(10 2.392555587e-13 -8.917015463e-14)
(10 1.428664657e-14 -4.64684278e-15)
(10 -2.23551184e-15 1.671227105e-16)
(10 2.163851284e-15 -9.888311452e-16)
(10 1.850164738e-16 -9.604654501e-17)
(10 -2.849399698e-16 -2.533765645e-16)
(10 -4.772409499e-17 2.046469712e-16)
(10 9.28911259e-17 2.069968917e-16)
(10 -2.487060818e-17 -1.03086777e-16)
(10 5.56224379e-17 -4.778529047e-16)
(10 2.784067439e-16 -1.458886398e-16)
(10 -1.210115886e-16 7.914595245e-17)
(10 -1.102325434e-16 2.618515598e-16)
(10 -2.390750344e-16 1.428429674e-17)
(10 -3.09249566e-16 6.48045072e-17)
(10 3.124220651e-16 -3.661077594e-16)
(10 3.185506165e-17 4.968380616e-17)
(10 -1.456090903e-16 -3.763257805e-16)
(10 4.130560621e-17 4.553089115e-16)
(10 -1.080810088e-16 -2.660973753e-18)
(10 4.231710706e-16 5.910967819e-16)
(10 -2.706746476e-16 1.292976294e-16)
(10 2.353702228e-16 1.995407413e-16)
(10 -2.666489959e-16 -2.68807183e-17)
(10 1.364853921e-16 1.749757891e-17)
(10 -2.188385902e-16 5.564619917e-16)
(10 -1.000862169e-15 5.078880463e-16)
(10 1.354184939e-16 -7.673887637e-17)
(10 4.236895964e-18 -2.400961834e-18)
(10 1.325615644e-19 -7.511991314e-20)
(10 4.147509994e-21 -2.350308642e-21)
(10 1.297649075e-22 -7.353510517e-23)
(10 4.060009799e-24 -2.300724081e-24)
(10 1.270272517e-25 -7.198373192e-26)
(10 3.974355599e-27 -2.252185607e-27)
(10 1.243473524e-28 -7.046508805e-29)
(10 3.890508449e-30 -2.204671151e-30)
(10 1.217239909e-31 -6.897848307e-32)
(10 3.808430225e-33 -2.158159109e-33)
(10 1.191559747e-34 -6.752324105e-35)
(10 3.728083609e-36 -2.112628333e-36)
(10 1.16642136e-37 -6.609870033e-38)
(10 3.649432069e-39 -2.068058123e-39)
(10 1.141813318e-40 -6.470421321e-41)
(10 3.572439844e-42 -2.024428212e-42)
(10 1.117724433e-43 -6.333914564e-44)
(10 3.497071927e-45 -1.981718763e-45)
(10 1.094143753e-46 -6.200287697e-47)
(10 3.42329405e-48 -1.939910357e-48)
(10 1.071060555e-49 -6.069479961e-50)
(10 3.351072669e-51 -1.898983985e-51)
(10 1.048464345e-52 -5.941431881e-53)
(10 3.280374945e-54 -1.858921038e-54)
(10 1.026344847e-55 -5.816085238e-56)
(10 3.211168734e-57 -1.819703301e-57)
(10 1.004692006e-58 -5.693383038e-59)
(10 3.143422569e-60 -1.781312942e-60)
(10 9.834959756e-62 -5.573269491e-62)
(10 3.077105648e-63 -1.743732507e-63)
(10 9.627471188e-65 -5.455689985e-65)
(10 3.012187818e-66 -1.706944907e-66)
(10 9.424360014e-68 -5.340591059e-68)
(10 2.948639562e-69 -1.670933417e-69)
(10 9.225533886e-71 -5.22792038e-71)
(10 2.886431986e-72 -1.635681663e-72)
(10 9.030902401e-74 -5.117626719e-74)
(10 2.825536807e-75 -1.601173617e-75)
(10 8.840377065e-77 -5.009659928e-77)
(10 2.765926335e-78 -1.567393588e-78)
(10 8.653871249e-80 -4.903970917e-80)
(10 2.707573468e-81 -1.534326218e-81)
(10 8.471300152e-83 -4.80051163e-83)
(10 2.650451672e-84 -1.501956471e-84)
(10 8.292580761e-86 -4.699235025e-86)
(10 2.594534976e-87 -1.470269628e-87)
(10 8.117631812e-89 -4.600095052e-89)
(10 2.539797952e-90 -1.439251282e-90)
(10 -1.73263378e-15 3.944786007e-15)
)
;

boundaryField
{
    left
    {
        type            dirichlet;
        value           uniform (4 0 0);
    }
    right
    {
        type            dirichlet;
        value           uniform (4 0 0);
    }
    sides
    {
        type            empty;
    }
}


// ************************************************************************* //
