-0.97375 -0.999997684949
-0.925 -0.999996050284
-0.875 -0.999991929288
-0.825 -0.999983174949
-0.775 -0.999965226423
-0.725 -0.999928733318
-0.675 -0.999854686233
-0.625 -0.999704521547
-0.575 -0.999400065777
-0.525 -0.998782955646
-0.475 -0.99753274134
-0.425 -0.995002436412
-0.375 -0.989891669403
-0.325 -0.979610688879
-0.275 -0.959097013007
-0.225 -0.918822425574
-0.175 -0.842194611246
-0.125 -0.704688646595
-0.075 -0.481790620546
-0.025 -0.173207503849
0.025 0.173207503849
0.075 0.481790620546
0.125 0.704688646595
0.175 0.842194611246
0.225 0.918822425574
0.275 0.959097013007
0.325 0.979610688879
0.375 0.989891669403
0.425 0.995002436412
0.475 0.99753274134
0.525 0.998782955646
0.575 0.999400065777
0.625 0.999704521547
0.675 0.999854686233
0.725 0.999928733318
0.775 0.999965226423
0.825 0.999983174949
0.875 0.999991929288
0.925 0.999996050284
