/*--------------------------------*- C++ -*----------------------------------*\
| =========                 |                                                 |
| \\      /  F ield         | foam-extend: Open Source CFD                    |
|  \\    /   O peration     | Version:     4.1                                |
|   \\  /    A nd           | Web:         http://www.foam-extend.org         |
|    \\/     M anipulation  |                                                 |
\*---------------------------------------------------------------------------*/
FoamFile
{
    version     2.0;
    format      ascii;
    class       cellScalarField;
    location    "16.8";
    object      T;
}
// * * * * * * * * * * * * * * * * * * * * * * * * * * * * * * * * * * * * * //

dimensions      [0 0 0 0 1 0 0];

internalField   nonuniform 
100
(
(4 -5.703630593e-17 1.624202108e-17)
(4 -2.129243255e-16 -4.311558779e-17)
(4 -6.241782917e-17 2.359929445e-17)
(4 3.025765899e-16 -3.203719656e-17)
(4 -2.493334919e-16 8.494735867e-17)
(4 -4.860037224e-16 1.242569087e-16)
(4 5.9218621e-16 5.695020084e-17)
(4 -6.780543564e-16 5.461071513e-17)
(4 9.380497677e-16 -3.338648606e-17)
(4 -1.479826746e-15 1.802583504e-16)
(4 7.533527983e-17 -1.498329943e-17)
(4 1.607458343e-15 -1.496931411e-16)
(4 8.359085347e-16 -1.775362598e-16)
(4 6.385337031e-17 2.22510472e-16)
(4 4.172500226e-15 3.273076424e-15)
(4 1.042733084e-13 6.394655542e-14)
(4 1.765224899e-12 1.133937411e-12)
(4 3.053047477e-11 1.84388853e-11)
(4 4.435887646e-10 2.518543467e-10)
(4.000000005 5.856139412e-09 3.243533436e-09)
(4.000000065 7.062467178e-08 3.657561488e-08)
(4.000000711 7.371297489e-07 3.555634639e-07)
(4.000006776 6.758376681e-06 3.045051146e-06)
(4.000056695 5.386082344e-05 2.190296547e-05)
(4.000401947 0.0003538999096 0.0001244032565)
(4.002327109 0.001844352878 0.0005432284006)
(4.01083957 0.007553344673 0.001822770461)
(4.040761753 0.02449825871 0.004740316494)
(4.125304093 0.06380438432 0.009630548013)
(4.319902826 0.1354347278 0.01530523536)
(4.689702084 0.2375957835 0.01877365391)
(5.277034366 0.34885832 0.0168691858)
(6.065358659 0.4335560733 0.008902410124)
(6.968495612 0.4606746375 -0.002234041911)
(7.859608097 0.4223073135 -0.01187267561)
(8.623073971 0.336760502 -0.01667590102)
(9.195313561 0.2353683571 -0.01630527432)
(9.573150734 0.1451906904 -0.01271292715)
(9.794343599 0.07956370347 -0.008315987205)
(9.909849177 0.03896915069 -0.004687208696)
(9.963958773 0.01715718761 -0.00231534303)
(9.986821362 0.006827196064 -0.001014665956)
(9.995578784 0.00246795318 -0.0003982798008)
(9.998634664 0.0008144073608 -0.000141138319)
(9.999610579 0.0002464680931 -4.546157944e-05)
(9.999897071 6.870614782e-05 -1.339031162e-05)
(9.999974705 1.771536692e-05 -3.62594932e-06)
(9.999994201 4.241643114e-06 -9.071177615e-07)
(9.999998756 9.466005342e-07 -2.106037316e-07)
(9.99999975 1.975968561e-07 -4.55645708e-08)
(9.999999953 3.870990284e-08 -9.221747393e-09)
(9.999999992 7.139380345e-09 -1.752150204e-09)
(9.999999999 1.243329694e-09 -3.135760798e-10)
(10 2.050274735e-10 -5.302425239e-11)
(10 3.210211094e-11 -8.4963462e-12)
(10 4.781643395e-12 -1.293096281e-12)
(10 6.81678215e-13 -1.884542749e-13)
(10 8.851265962e-14 -2.645261529e-14)
(10 1.18946717e-14 -3.510818066e-15)
(10 -1.303513745e-15 8.363867769e-16)
(10 -3.443700739e-16 -5.991917448e-16)
(10 2.816459645e-16 2.559812529e-16)
(10 -1.37080926e-16 1.248694763e-16)
(10 -2.414371423e-16 -4.00181826e-16)
(10 -1.354762743e-16 4.971113613e-16)
(10 9.149492231e-17 3.004550102e-16)
(10 9.223060625e-17 4.475374879e-16)
(10 -8.849461381e-17 -9.659464475e-17)
(10 1.819647291e-16 -4.465888548e-16)
(10 -5.56356623e-16 -1.214112331e-16)
(10 9.683644185e-17 -2.180133338e-16)
(10 -2.72234908e-16 2.924165868e-16)
(10 -1.226086356e-16 1.966218138e-16)
(10 -1.611833806e-17 1.071496211e-16)
(10 -2.52262311e-16 -6.197578587e-18)
(10 -9.576879652e-17 2.560066526e-16)
(10 4.217683222e-16 2.378595512e-17)
(10 -5.021796073e-16 -2.389238708e-16)
(10 4.171856616e-16 -2.728816748e-16)
(10 -2.256914754e-16 6.9929712e-17)
(10 -2.906985225e-16 -6.7143507e-16)
(10 2.683716384e-16 -3.722320865e-16)
(10 3.077962288e-16 4.100018832e-16)
(10 -1.266948779e-16 -1.728831603e-17)
(10 4.217576813e-16 1.235747836e-16)
(10 -4.130814841e-16 3.218488892e-16)
(10 -2.222254298e-16 3.290701568e-16)
(10 5.967780547e-16 6.133216439e-17)
(10 -1.660617095e-16 4.497913817e-17)
(10 -9.421143201e-17 -4.737826436e-16)
(10 3.468382195e-16 -6.161988899e-16)
(10 -1.231960096e-16 -8.614494291e-17)
(10 -1.663364556e-16 1.279584976e-16)
(10 -1.949315422e-16 -1.742464799e-16)
(10 -5.099049391e-17 1.053148425e-16)
(10 5.103035582e-16 -1.990555807e-16)
(10 -6.965932383e-17 -2.766643485e-16)
(10 -1.470454978e-16 -6.465388021e-16)
(10 -2.547853046e-16 -6.041664286e-16)
(10 -8.056093746e-16 3.006989924e-15)
)
;

boundaryField
{
    left
    {
        type            dirichlet;
        value           uniform (4 0 0);
    }
    right
    {
        type            dirichlet;
        value           uniform (4 0 0);
    }
    sides
    {
        type            empty;
    }
}


// ************************************************************************* //
