/*--------------------------------*- C++ -*----------------------------------*\
| =========                 |                                                 |
| \\      /  F ield         | foam-extend: Open Source CFD                    |
|  \\    /   O peration     | Version:     4.1                                |
|   \\  /    A nd           | Web:         http://www.foam-extend.org         |
|    \\/     M anipulation  |                                                 |
\*---------------------------------------------------------------------------*/
FoamFile
{
    version     2.0;
    format      ascii;
    class       cellScalarField;
    location    "34.1";
    object      T;
}
// * * * * * * * * * * * * * * * * * * * * * * * * * * * * * * * * * * * * * //

dimensions      [0 0 0 0 1 0 0];

internalField   nonuniform 
100
(
(4 -5.703630593e-17 1.624202108e-17)
(4 -1.17982632e-16 1.351851207e-16)
(4 -1.404347036e-16 -5.281777853e-18)
(4 1.231048486e-16 -1.136559851e-16)
(4 -6.596274205e-18 -9.88241171e-18)
(4 -2.140261445e-16 -6.276009697e-18)
(4 6.204022211e-17 1.101389828e-16)
(4 -3.83415852e-16 -1.459736527e-16)
(4 8.714782678e-16 -1.279692538e-16)
(4 -1.351761199e-15 -6.118920222e-18)
(4 5.97430816e-17 2.42863287e-16)
(4 -1.004212903e-16 -4.726378873e-17)
(4 1.029411526e-15 4.1932293e-17)
(4 -6.851197989e-16 -2.345707247e-18)
(4 7.026245211e-16 3.72553509e-17)
(4 -6.49240502e-16 1.229551808e-17)
(4 6.39156177e-16 -5.569015896e-17)
(4 -8.645833584e-16 5.738797066e-16)
(4 2.162193179e-16 -1.328011251e-16)
(4 -2.342437984e-16 1.690090241e-17)
(4 7.663175829e-17 -1.346569084e-16)
(4 -7.04155096e-17 4.731711893e-17)
(4 3.278511284e-16 1.83050769e-16)
(4 -6.11097845e-16 -1.167659674e-17)
(4 3.875656905e-16 3.615216513e-17)
(4 -1.443017448e-16 -3.818529231e-16)
(4 -2.061978609e-17 -3.517252822e-17)
(4 9.845434142e-17 1.742605657e-16)
(4 -6.464464021e-16 7.096773897e-17)
(4 3.779371139e-16 -5.376405343e-17)
(4 -5.90338821e-17 -8.559464224e-17)
(4 3.58474533e-17 -1.082244651e-16)
(4 -2.095835767e-17 -3.915737012e-17)
(4 -3.242226519e-16 -4.250403147e-17)
(4 9.524959695e-16 1.018948369e-16)
(4 -7.506755595e-16 1.814731383e-16)
(4 2.541480446e-16 2.75959964e-17)
(4 -2.746556637e-16 9.74918869e-17)
(4 1.217530015e-16 1.408968692e-16)
(4 -2.018350176e-18 8.698537044e-18)
(4 2.534224554e-17 9.960463149e-17)
(4 3.063795543e-15 2.206185138e-15)
(4 3.983483576e-14 2.020169489e-14)
(4 4.055232665e-13 1.933411296e-13)
(4 3.750411511e-12 1.727946686e-12)
(4 3.238673901e-11 1.430467316e-11)
(4 2.590993247e-10 1.092942317e-10)
(4.000000002 1.911405202e-09 7.659102361e-10)
(4.000000015 1.292671961e-08 4.890162647e-09)
(4.000000093 7.963671967e-08 2.824084073e-08)
(4.000000545 4.440641655e-07 1.465091152e-07)
(4.000002886 2.228981622e-06 6.791326623e-07)
(4.000013786 1.003343954e-05 2.803461732e-06)
(4.000059314 4.042663507e-05 1.029152662e-05)
(4.000229773 0.0001457824693 3.360251633e-05)
(4.000802268 0.0004710745441 9.769551525e-05)
(4.002530035 0.001366929855 0.0002533542292)
(4.007226814 0.003571468542 0.000587133475)
(4.018759272 0.008427443536 0.001217941431)
(4.044412292 0.01801575654 0.002264170316)
(4.096263922 0.03500099783 0.003773357849)
(4.191783917 0.06198932182 0.005631609349)
(4.352626603 0.1003818551 0.007502247075)
(4.600885703 0.1490513383 0.008855708116)
(4.953075139 0.2034899504 0.009120751308)
(5.413471907 0.2560967452 0.007915519863)
(5.969425157 0.2978461835 0.005249882449)
(6.591022965 0.3208691535 0.001582446928)
(7.235954664 0.3209109047 -0.002315119333)
(7.858218803 0.2985996604 -0.005627813438)
(8.417687179 0.2590173468 -0.007770504893)
(8.887323073 0.2098705208 -0.008541990143)
(9.256082033 0.1591367525 -0.008112448765)
(9.527412236 0.1131272752 -0.006884245491)
(9.714815568 0.0755255252 -0.005313355058)
(9.836518878 0.04743232055 -0.003770465709)
(9.910952761 0.02806781662 -0.002478155783)
(9.953892195 0.01567374046 -0.001516741914)
(9.977291981 0.0082721965 -0.0008680928799)
(9.989355385 0.004132256906 -0.0004662039506)
(9.99524713 0.001956532762 -0.0002356098782)
(9.997976925 0.0008792601042 -0.0001123327243)
(9.999178378 0.0003755416653 -5.063835798e-05)
(9.999681344 0.0001526417412 -2.162645767e-05)
(9.99988187 5.911686251e-05 -8.766418444e-06)
(9.999958103 2.18426824e-05 -3.378543607e-06)
(9.99998577 7.70861737e-06 -1.239932926e-06)
(9.999995368 2.60152839e-06 -4.339883417e-07)
(9.999998553 8.40532527e-07 -1.450721188e-07)
(9.999999566 2.602757675e-07 -4.637673461e-08)
(9.999999875 7.732732628e-08 -1.419658886e-08)
(9.999999965 2.206514673e-08 -4.166475304e-09)
(9.999999991 6.053377369e-09 -1.173722112e-09)
(9.999999998 1.598223772e-09 -3.177367632e-10)
(9.999999999 4.064831857e-10 -8.27450266e-11)
(10 9.968569169e-11 -2.07521008e-11)
(10 2.35896331e-11 -5.016589646e-12)
(10 5.393259235e-12 -1.170496346e-12)
(10 1.191445379e-12 -2.642132561e-13)
(10 2.502079135e-13 -5.342129956e-14)
)
;

boundaryField
{
    left
    {
        type            dirichlet;
        value           uniform (4 0 0);
    }
    right
    {
        type            dirichlet;
        value           uniform (4 0 0);
    }
    sides
    {
        type            empty;
    }
}


// ************************************************************************* //
