/*--------------------------------*- C++ -*----------------------------------*\
| =========                 |                                                 |
| \\      /  F ield         | foam-extend: Open Source CFD                    |
|  \\    /   O peration     | Version:     4.1                                |
|   \\  /    A nd           | Web:         http://www.foam-extend.org         |
|    \\/     M anipulation  |                                                 |
\*---------------------------------------------------------------------------*/
FoamFile
{
    version     2.0;
    format      ascii;
    class       cellScalarField;
    location    "22";
    object      T;
}
// * * * * * * * * * * * * * * * * * * * * * * * * * * * * * * * * * * * * * //

dimensions      [0 0 0 0 1 0 0];

internalField   nonuniform 
100
(
(4 -5.703630593e-17 1.624202108e-17)
(4 7.465421383e-17 -1.351760848e-16)
(4 -2.290617214e-16 1.624660504e-16)
(4 -5.704338711e-17 -1.048555302e-16)
(4 2.873096314e-17 -5.275408193e-17)
(4 -4.470489477e-16 2.05194913e-16)
(4 4.678976399e-16 6.488144192e-17)
(4 -2.489134122e-16 6.881194724e-17)
(4 8.88516396e-16 -7.528725577e-17)
(4 -1.331744659e-15 9.758308446e-17)
(4 3.755053768e-16 -1.053357435e-17)
(4 6.367948452e-16 -1.160260054e-16)
(4 -6.810665005e-17 -9.539742413e-17)
(4 -2.658568801e-16 2.527592356e-16)
(4 7.315240003e-16 3.376714726e-17)
(4 -6.746249063e-16 -4.916185798e-17)
(4 1.710797215e-16 -1.975434155e-16)
(4 1.762726123e-17 -8.71904848e-17)
(4 -4.505506019e-17 1.998326318e-17)
(4 7.867338342e-18 1.863445753e-16)
(4 8.889157538e-16 5.909263128e-16)
(4 1.685936127e-15 6.318681031e-17)
(4 4.697510928e-15 3.03151145e-15)
(4 9.538889543e-14 5.646504206e-14)
(4 1.362161556e-12 7.728907847e-13)
(4 1.770236438e-11 9.630191895e-12)
(4 2.103003783e-10 1.09873503e-10)
(4.000000002 2.289586307e-09 1.141212566e-09)
(4.000000022 2.255342166e-08 1.061871003e-08)
(4.000000202 1.990723504e-07 8.803289417e-08)
(4.000001657 1.564450509e-06 6.426147031e-07)
(4.000012011 1.076569038e-05 4.02827701e-06)
(4.000075696 6.343126442e-05 2.11676681e-05)
(4.00040833 0.0003147812308 9.201469656e-05)
(4.001870602 0.001307420554 0.0003298624166)
(4.007275919 0.004551623045 0.0009778151223)
(4.024146714 0.01335921618 0.002407954011)
(4.068901097 0.03331037125 0.004946512717)
(4.170566989 0.07113542653 0.008490399768)
(4.369835325 0.1311418488 0.01213705461)
(4.709281929 0.2102732137 0.01425964265)
(5.215246973 0.2952662979 0.01326207654)
(5.879320538 0.3654225306 0.008640639689)
(6.651260607 0.4009363638 0.001535025873)
(7.450286107 0.3921102488 -0.005758271716)
(8.190435265 0.3435407326 -0.01100153889)
(8.806867983 0.2709087068 -0.01308396573)
(9.27048466 0.1931308585 -0.01228258368)
(9.586659556 0.1249861582 -0.009749833451)
(9.782941913 0.07371454575 -0.006752103881)
(9.894275252 0.03976840763 -0.004153086704)
(9.952176407 0.01969482463 -0.002295712275)
(9.97987937 0.008983800543 -0.001150329283)
(9.992112529 0.003786721543 -0.0005260445133)
(9.9971136 0.001479462983 -0.000220772427)
(9.999011987 0.0005373650054 -8.544167991e-05)
(9.999683012 0.0001819677278 -3.062178815e-05)
(9.99990448 5.760563036e-05 -1.020175292e-05)
(9.99997291 1.709305732e-05 -3.17033527e-06)
(9.999992754 4.765979188e-06 -9.219490878e-07)
(9.999998169 1.251732823e-06 -2.516327732e-07)
(9.999999562 3.103883262e-07 -6.46381782e-08)
(9.9999999 7.282816916e-08 -1.566758871e-08)
(9.999999979 1.620391162e-08 -3.592281115e-09)
(9.999999996 3.42574001e-09 -7.809036003e-10)
(9.999999999 6.89533049e-10 -1.613021011e-10)
(10 1.323806372e-10 -3.172244228e-11)
(10 2.428085144e-11 -5.952743925e-12)
(10 4.262671336e-12 -1.067756067e-12)
(10 7.183682169e-13 -1.842927048e-13)
(10 1.138146206e-13 -2.871595478e-14)
(10 2.000137268e-14 -4.609165238e-15)
(10 3.209975362e-15 -1.001549266e-15)
(10 9.944244496e-18 4.635849795e-16)
(10 -5.108523926e-16 -1.799650666e-16)
(10 1.466928125e-16 -9.580849669e-17)
(10 -5.063955044e-16 1.142230659e-16)
(10 2.003065323e-16 -5.397321917e-16)
(10 1.27198087e-16 -2.153605194e-16)
(10 1.485419176e-16 4.141547671e-16)
(10 -7.020710987e-17 1.370403807e-16)
(10 7.975284445e-16 1.481363378e-16)
(10 -2.441379721e-16 -4.704897143e-16)
(10 1.583075036e-16 -3.761217361e-16)
(10 -1.979425946e-16 -3.358511697e-16)
(10 2.599798088e-16 -3.615805254e-16)
(10 -1.454063381e-16 -5.046947915e-16)
(10 1.250083823e-16 3.419475804e-17)
(10 5.199910776e-16 6.450873939e-17)
(10 2.572662655e-16 -3.919223894e-16)
(10 1.43319064e-16 -1.901103643e-16)
(10 -1.91139199e-16 -3.554967609e-16)
(10 -6.396596799e-17 2.715791741e-16)
(10 -5.982102534e-17 6.424443766e-16)
(10 -3.495733629e-16 -9.266204066e-17)
(10 -5.771291372e-16 -8.44256253e-17)
(10 1.273349015e-17 1.732920057e-16)
(10 -6.300092572e-17 -5.859971535e-16)
(10 4.579881374e-16 -3.860753906e-16)
(10 -1.635178449e-15 4.688644705e-15)
)
;

boundaryField
{
    left
    {
        type            dirichlet;
        value           uniform (4 0 0);
    }
    right
    {
        type            dirichlet;
        value           uniform (4 0 0);
    }
    sides
    {
        type            empty;
    }
}


// ************************************************************************* //
