/*--------------------------------*- C++ -*----------------------------------*\
| =========                 |                                                 |
| \\      /  F ield         | foam-extend: Open Source CFD                    |
|  \\    /   O peration     | Version:     4.1                                |
|   \\  /    A nd           | Web:         http://www.foam-extend.org         |
|    \\/     M anipulation  |                                                 |
\*---------------------------------------------------------------------------*/
FoamFile
{
    version     2.0;
    format      ascii;
    class       cellScalarField;
    location    "9.3";
    object      T;
}
// * * * * * * * * * * * * * * * * * * * * * * * * * * * * * * * * * * * * * //

dimensions      [0 0 0 0 1 0 0];

internalField   nonuniform 
100
(
(4 -5.703630593e-17 1.624202108e-17)
(4 6.157790593e-17 -8.04159335e-17)
(4 1.895174336e-16 3.049786179e-16)
(4 5.556026822e-16 -7.585385867e-15)
(4 4.544257944e-14 2.344813731e-13)
(4 4.150829954e-12 -9.138973898e-13)
(4 2.052580542e-11 7.803599688e-11)
(4.000000002 2.896361103e-09 1.403760204e-09)
(4.000000031 3.017784572e-08 2.224702397e-08)
(4.000000633 8.198322735e-07 5.519136346e-07)
(4.000010708 1.192465892e-05 6.0979839e-06)
(4.000127018 0.0001357315085 7.560246643e-05)
(4.001459071 0.001567537523 0.0007511639792)
(4.012906733 0.01214893919 0.004258599909)
(4.075493441 0.05758242768 0.01404591899)
(4.297475168 0.1760183131 0.02824074016)
(4.835010091 0.3682547132 0.03441326831)
(5.764898709 0.5528290375 0.02108160727)
(6.956748579 0.6179490807 -0.005291694253)
(8.122598035 0.5299443085 -0.02576230899)
(9.014838499 0.3575608149 -0.0297997276)
(9.560704762 0.1940028936 -0.02205548694)
(9.832832482 0.08631067868 -0.01211322918)
(9.945315054 0.03204602813 -0.005251043683)
(9.984484128 0.01009069099 -0.001863465411)
(9.996144813 0.002734574827 -0.0005555272414)
(9.999152994 0.0006464126235 -0.0001419558073)
(9.99983389 0.0001349221094 -3.161350212e-05)
(9.99997066 2.514273055e-05 -6.222637673e-06)
(9.999995293 4.22504079e-06 -1.095786286e-06)
(9.999999309 6.460040867e-07 -1.744658732e-07)
(9.999999906 9.059864859e-08 -2.53479149e-08)
(9.999999988 1.173877232e-08 -3.388060415e-09)
(9.999999999 1.414307212e-09 -4.196165282e-10)
(10 1.593638814e-10 -4.846124559e-11)
(10 1.688397978e-11 -5.248503862e-12)
(10 1.6904257e-12 -5.364282626e-13)
(10 1.613325077e-13 -5.321560131e-14)
(10 1.286493249e-14 -4.630853815e-15)
(10 -5.029786502e-16 -6.058483476e-16)
(10 2.997332164e-16 1.266293098e-16)
(10 -1.440353332e-15 4.933846794e-16)
(10 1.084934335e-15 4.955886378e-17)
(10 4.767141654e-16 4.741768636e-16)
(10 -6.718591489e-16 4.551037337e-16)
(10 3.272503986e-16 -8.592616389e-16)
(10 4.373130403e-16 -1.149084732e-16)
(10 -4.882859071e-17 6.889052605e-16)
(10 -1.240275824e-16 1.36691384e-16)
(10 1.918106101e-16 -1.026820674e-16)
(10 -2.544363414e-16 -7.099131085e-17)
(10 -4.259634332e-17 -1.269103296e-16)
(10 -1.549174563e-16 3.779233759e-16)
(10 -2.588084735e-16 3.709215828e-16)
(10 -4.056001245e-16 2.925522534e-16)
(10 -2.778874223e-16 -8.4758464e-17)
(10 3.906655897e-16 -6.886592627e-17)
(10 5.014423466e-17 1.09155563e-16)
(10 2.55781112e-16 -5.418604728e-16)
(10 3.071399044e-16 -4.906087892e-16)
(10 2.898772596e-16 -1.848444768e-16)
(10 -3.267292805e-16 -5.379311192e-16)
(10 4.395885533e-16 6.202830945e-17)
(10 2.255548623e-16 1.963774503e-16)
(10 4.006846018e-16 -1.731567102e-16)
(10 -1.471218776e-16 -3.932341211e-16)
(10 1.615532822e-16 2.366354111e-16)
(10 2.270860501e-16 3.74600497e-16)
(10 1.828715888e-16 3.19664406e-16)
(10 -1.827563443e-16 -2.767147952e-16)
(10 1.565928207e-16 6.16038107e-17)
(10 -3.119270392e-16 2.379022803e-16)
(10 4.593988519e-16 3.8323379e-16)
(10 -3.817954547e-16 -3.411569135e-16)
(10 -3.764792787e-17 1.252183378e-16)
(10 -1.557991585e-16 6.354682182e-16)
(10 -6.271847208e-16 2.798971551e-16)
(10 3.013673661e-17 -1.418887296e-16)
(10 3.376524337e-16 -6.385584559e-17)
(10 -1.71184421e-16 2.263353132e-16)
(10 -2.523298773e-16 -1.508225036e-16)
(10 -2.922187995e-16 -7.778029021e-17)
(10 1.808607958e-16 3.070162787e-16)
(10 -2.493189259e-16 3.164087687e-16)
(10 -1.918092485e-16 5.745622757e-16)
(10 -1.639458028e-16 1.420049572e-16)
(10 -1.300682109e-16 2.757501344e-16)
(10 -2.409990997e-16 1.553484204e-17)
(10 -3.093905255e-16 6.489192761e-17)
(10 3.124138406e-16 -3.661027567e-16)
(10 3.185463172e-17 4.968406569e-17)
(10 -1.456091117e-16 -3.763257675e-16)
(10 4.130560516e-17 4.553089121e-16)
(10 -1.080810088e-16 -2.660973724e-18)
(10 4.231710706e-16 5.910967819e-16)
(10 -2.706746476e-16 1.292976294e-16)
(10 2.353702228e-16 1.995407413e-16)
(10 -2.666489959e-16 -2.68807183e-17)
(10 1.364853921e-16 1.749757891e-17)
(10 -1.595715908e-15 3.546671234e-15)
)
;

boundaryField
{
    left
    {
        type            dirichlet;
        value           uniform (4 0 0);
    }
    right
    {
        type            dirichlet;
        value           uniform (4 0 0);
    }
    sides
    {
        type            empty;
    }
}


// ************************************************************************* //
