/*--------------------------------*- C++ -*----------------------------------*\
| =========                 |                                                 |
| \\      /  F ield         | foam-extend: Open Source CFD                    |
|  \\    /   O peration     | Version:     4.1                                |
|   \\  /    A nd           | Web:         http://www.foam-extend.org         |
|    \\/     M anipulation  |                                                 |
\*---------------------------------------------------------------------------*/
FoamFile
{
    version     2.0;
    format      ascii;
    class       cellScalarField;
    location    "2";
    object      T;
}
// * * * * * * * * * * * * * * * * * * * * * * * * * * * * * * * * * * * * * //

dimensions      [0 0 0 0 1 0 0];

internalField   nonuniform 10((4.000363365 0.0004489578974 -0.00021060483) (4.000911452 0.001341376537 0.01347541941) (4.255407981 0.3605054502 0.1444328238) (5.877493226 1.229199734 0.06053003921) (8.307425884 1.02123806 -0.1272231292) (9.617916686 0.3258204726 -0.07336016916) (9.946364035 0.05474107512 -0.01549394181) (9.994583861 0.006137538681 -0.001955874936) (9.999564995 0.0005277304264 -0.0001809403618) (9.999970396 3.768784553e-05 -1.358730455e-05));

boundaryField
{
    left
    {
        type            dirichlet;
        value           uniform (4 0 0);
    }
    right
    {
        type            dirichlet;
        value           uniform (4 0 0);
    }
    sides
    {
        type            empty;
    }
}


// ************************************************************************* //
