/*--------------------------------*- C++ -*----------------------------------*\
| =========                 |                                                 |
| \\      /  F ield         | foam-extend: Open Source CFD                    |
|  \\    /   O peration     | Version:     4.1                                |
|   \\  /    A nd           | Web:         http://www.foam-extend.org         |
|    \\/     M anipulation  |                                                 |
\*---------------------------------------------------------------------------*/
FoamFile
{
    version     2.0;
    format      ascii;
    class       volScalarField;
    location    "2";
    object      Tvol;
}
// * * * * * * * * * * * * * * * * * * * * * * * * * * * * * * * * * * * * * //

dimensions      [0 0 0 0 1 0 0];

internalField   nonuniform List<scalar> 10(4.000468667 3.994173742 4.183191569 5.847228207 8.371037449 9.65459677 9.954111006 9.995561798 9.999655466 9.999977189);

boundaryField
{
    left
    {
        type            calculated;
        value           uniform 4;
    }
    right
    {
        type            calculated;
        value           uniform 10;
    }
    sides
    {
        type            empty;
    }
}


// ************************************************************************* //
