/*--------------------------------*- C++ -*----------------------------------*\
| =========                 |                                                 |
| \\      /  F ield         | foam-extend: Open Source CFD                    |
|  \\    /   O peration     | Version:     4.1                                |
|   \\  /    A nd           | Web:         http://www.foam-extend.org         |
|    \\/     M anipulation  |                                                 |
\*---------------------------------------------------------------------------*/
FoamFile
{
    version     2.0;
    format      ascii;
    class       cellScalarField;
    location    "41";
    object      T;
}
// * * * * * * * * * * * * * * * * * * * * * * * * * * * * * * * * * * * * * //

dimensions      [0 0 0 0 1 0 0];

internalField   nonuniform 
100
(
(4 -5.703630593e-17 1.624202108e-17)
(4 -6.303103188e-17 1.500916827e-16)
(4 -1.36603843e-16 4.791122531e-17)
(4 -9.699321169e-17 -2.80242967e-17)
(4 -2.111477119e-16 2.204489405e-16)
(4 -4.789044755e-16 2.423380745e-16)
(4 3.815597735e-16 1.566700714e-16)
(4 -3.091450621e-16 2.890382746e-16)
(4 6.744570067e-16 -1.446276292e-16)
(4 -1.125339365e-15 -1.798740375e-16)
(4 4.867575277e-16 4.433128523e-17)
(4 -5.970349137e-16 -9.176898179e-17)
(4 1.286718762e-15 -1.231014412e-16)
(4 -4.356009721e-16 1.697946204e-16)
(4 3.617914199e-16 1.196865601e-16)
(4 -3.764142926e-16 1.037480517e-16)
(4 5.03279698e-16 1.667430204e-16)
(4 -7.779761286e-16 1.414480338e-16)
(4 6.251824469e-16 -5.510073883e-17)
(4 -6.232192969e-16 1.54503516e-16)
(4 5.350404429e-17 6.810618139e-17)
(4 1.491036538e-16 -1.625493075e-16)
(4 -1.409881843e-16 9.483360545e-18)
(4 -6.601730626e-17 -1.887784638e-16)
(4 1.927001491e-18 3.710146385e-17)
(4 -5.846834409e-17 1.1558281e-16)
(4 1.549316688e-16 -1.298944539e-16)
(4 -1.873539827e-16 -8.953745643e-17)
(4 -3.993389848e-16 -1.070913736e-16)
(4 4.381810086e-16 -3.977606154e-17)
(4 3.716707442e-17 2.784571631e-16)
(4 1.1846238e-16 4.164904835e-18)
(4 4.907922962e-17 -1.378799954e-16)
(4 -2.893662111e-16 4.434055687e-17)
(4 2.818582094e-16 6.765030503e-17)
(4 -3.05223054e-16 7.227885488e-17)
(4 9.638645227e-16 2.921699548e-16)
(4 -1.148637935e-15 -4.558726321e-16)
(4 9.626851469e-16 7.167468419e-17)
(4 -9.915779277e-16 -8.518904325e-18)
(4 1.140724499e-15 -1.391789096e-16)
(4 -8.501550719e-16 2.640619821e-16)
(4 8.101764318e-16 8.888755817e-17)
(4 -8.285548531e-16 2.100550164e-16)
(4 1.874117828e-16 -1.55681465e-16)
(4 8.262731208e-16 -7.884679242e-17)
(4 -7.188178164e-16 -1.038727444e-16)
(4 8.992483501e-16 -4.750759642e-17)
(4 -7.05783814e-16 -6.87301162e-17)
(4 3.149320141e-16 1.584842818e-16)
(4 -6.620276174e-17 -1.958427871e-17)
(4 1.670111078e-16 1.848907096e-16)
(4 2.701087953e-15 6.940693138e-16)
(4 1.832519526e-14 9.823866482e-15)
(4 1.762993986e-13 7.897931841e-14)
(4 1.445180401e-12 6.177286693e-13)
(4 1.097071694e-11 4.501853987e-12)
(4 7.771441784e-11 3.049670263e-11)
(4.000000001 5.114360853e-10 1.911365071e-10)
(4.000000004 3.113944886e-09 1.103101683e-09)
(4.000000021 1.746998444e-08 5.837005261e-09)
(4.000000115 8.997985592e-08 2.821292092e-08)
(4.000000569 4.242308301e-07 1.242144313e-07)
(4.000002581 1.827304337e-06 4.972766726e-07)
(4.00001073 7.183761707e-06 1.808803158e-06)
(4.000040891 2.577505937e-05 5.978230474e-06)
(4.000142923 8.446006121e-05 1.796495323e-05)
(4.000458716 0.0002530743994 4.913675459e-05)
(4.001354243 0.0006945482868 0.0001224777467)
(4.003685144 0.00174919162 0.0002785730467)
(4.009264338 0.004050801958 0.0005788516806)
(4.021569863 0.008644343177 0.001099890924)
(4.046631219 0.01703475588 0.001912129685)
(4.093856827 0.03106483662 0.00304112377)
(4.176365187 0.05253250763 0.004420366092)
(4.310278227 0.08254365921 0.005857481878)
(4.51257226 0.1207471576 0.007041168398)
(4.7975301 0.1647470708 0.007605877103)
(5.172492651 0.2100316082 0.007244729374)
(5.634179846 0.2506256689 0.005830861532)
(6.166992512 0.2803873494 0.003492627395)
(6.74423001 0.2945594566 0.0006019180195)
(7.332190388 0.291026247 -0.002326934782)
(7.89607544 0.270815658 -0.004788277976)
(8.405986331 0.2376906187 -0.006425050008)
(8.841347374 0.1970331049 -0.007105678977)
(9.192767333 0.1544638835 -0.006918976804)
(9.46128684 0.1146641965 -0.006104281468)
(9.655747171 0.08070055436 -0.00495541445)
(9.789378581 0.05391268726 -0.003736823393)
(9.876617341 0.03422737293 -0.002634498345)
(9.930782536 0.02067340385 -0.001744626415)
(9.962801983 0.01189269282 -0.001089143032)
(9.980842543 0.006522877375 -0.0006428487151)
(9.990540419 0.00341458408 -0.0003596071471)
(9.995519282 0.001707706396 -0.0001910507614)
(9.997962914 0.0008167546609 -9.657518823e-05)
(9.999110562 0.0003739287212 -4.652546539e-05)
(9.999626806 0.0001640252035 -2.139298407e-05)
(9.999849428 6.900063781e-05 -9.401623223e-06)
)
;

boundaryField
{
    left
    {
        type            dirichlet;
        value           uniform (4 0 0);
    }
    right
    {
        type            dirichlet;
        value           uniform (4 0 0);
    }
    sides
    {
        type            empty;
    }
}


// ************************************************************************* //
