/*--------------------------------*- C++ -*----------------------------------*\
| =========                 |                                                 |
| \\      /  F ield         | foam-extend: Open Source CFD                    |
|  \\    /   O peration     | Version:     4.1                                |
|   \\  /    A nd           | Web:         http://www.foam-extend.org         |
|    \\/     M anipulation  |                                                 |
\*---------------------------------------------------------------------------*/
FoamFile
{
    version     2.0;
    format      ascii;
    class       cellScalarField;
    location    "6.5";
    object      T;
}
// * * * * * * * * * * * * * * * * * * * * * * * * * * * * * * * * * * * * * //

dimensions      [0 0 0 0 1 0 0];

internalField   nonuniform 
100
(
(4 -9.010929574e-14 -3.225925852e-14)
(4 7.103647604e-12 2.877643711e-12)
(4 -1.741062544e-10 -5.783493923e-11)
(4.000000003 6.334014221e-09 4.238366596e-09)
(4.000000047 1.046610546e-08 -6.06588159e-09)
(4.000001123 1.91173624e-06 1.903581691e-06)
(4.000034021 3.880030063e-05 1.632784597e-05)
(4.000395626 0.0004196787476 0.0002974798593)
(4.006140083 0.007314225353 0.003873179206)
(4.062326284 0.05964996911 0.0192273103)
(4.33649391 0.2349646844 0.04363542611)
(5.08761324 0.5222857515 0.04601917709)
(6.362499765 0.7256965008 0.009728998624)
(7.799575739 0.676090925 -0.03124217737)
(8.932958951 0.4453210807 -0.04228217231)
(9.585314925 0.2165609945 -0.02931069589)
(9.86945198 0.08070986317 -0.01364896799)
(9.966165586 0.02382336914 -0.004705154676)
(9.992648213 0.005734183556 -0.001270157033)
(9.99863605 0.001154708209 -0.0002793565323)
(9.999780195 0.0001989309509 -5.160741103e-05)
(9.999968748 2.988964668e-05 -8.205465329e-06)
(9.999996025 3.981844887e-06 -1.145427331e-06)
(9.999999542 4.769795016e-07 -1.427024942e-07)
(9.999999952 5.199654009e-08 -1.608524287e-08)
(9.999999995 5.211416817e-09 -1.659322766e-09)
(10 4.844513301e-10 -1.581773971e-10)
(10 4.208747166e-11 -1.404795805e-11)
(10 3.437260651e-12 -1.170925031e-12)
(10 2.647555026e-13 -9.259183955e-14)
(10 2.17241327e-14 -8.288728438e-15)
(10 5.475315519e-16 -6.775136502e-16)
(10 9.989790676e-18 -9.40405754e-17)
(10 8.285971639e-16 9.801868082e-16)
(10 -1.738014168e-15 2.830536242e-17)
(10 1.107137705e-15 -4.957734595e-16)
(10 -1.463073424e-15 3.40185581e-17)
(10 9.104002456e-16 3.575515624e-17)
(10 -1.147901379e-15 1.91161355e-16)
(10 -3.887752985e-17 9.218812155e-17)
(10 -1.283453922e-16 4.654776402e-16)
(10 -3.275912733e-17 4.763128278e-16)
(10 -5.380952195e-17 7.638143499e-17)
(10 2.63103895e-16 2.94113277e-16)
(10 -6.775646648e-17 -1.568700343e-16)
(10 2.933116076e-16 -4.470424763e-16)
(10 -1.756954437e-16 1.980167435e-16)
(10 -1.578642236e-16 6.359391418e-16)
(10 -6.269150767e-16 2.796923216e-16)
(10 3.017228324e-17 -1.419106162e-16)
(10 3.376545276e-16 -6.385701972e-17)
(10 -1.711843577e-16 2.263352819e-16)
(10 -2.523298776e-16 -1.508225032e-16)
(10 -2.922187997e-16 -7.778029014e-17)
(10 1.808607958e-16 3.070162787e-16)
(10 -2.49318926e-16 3.164087687e-16)
(10 -1.918092485e-16 5.745622757e-16)
(10 -1.639458028e-16 1.420049572e-16)
(10 -1.300682109e-16 2.757501344e-16)
(10 -2.409990997e-16 1.553484204e-17)
(10 -3.093905255e-16 6.489192761e-17)
(10 3.124138406e-16 -3.661027567e-16)
(10 3.185463172e-17 4.968406569e-17)
(10 -1.456091117e-16 -3.763257675e-16)
(10 4.130560516e-17 4.553089121e-16)
(10 -1.080810088e-16 -2.660973724e-18)
(10 4.231710706e-16 5.910967819e-16)
(10 -2.706746476e-16 1.292976294e-16)
(10 2.353702228e-16 1.995407413e-16)
(10 -2.666489959e-16 -2.68807183e-17)
(10 1.364853921e-16 1.749757891e-17)
(10 -2.188385902e-16 5.564619917e-16)
(10 -1.000862169e-15 5.078880463e-16)
(10 1.354184939e-16 -7.673887637e-17)
(10 4.236895964e-18 -2.400961834e-18)
(10 1.325615644e-19 -7.511991314e-20)
(10 4.147509994e-21 -2.350308642e-21)
(10 1.297649075e-22 -7.353510517e-23)
(10 4.060009799e-24 -2.300724081e-24)
(10 1.270272517e-25 -7.198373192e-26)
(10 3.974355599e-27 -2.252185607e-27)
(10 1.243473524e-28 -7.046508805e-29)
(10 3.890508449e-30 -2.204671151e-30)
(10 1.217239909e-31 -6.897848307e-32)
(10 3.808430225e-33 -2.158159109e-33)
(10 1.191559747e-34 -6.752324105e-35)
(10 3.728083609e-36 -2.112628333e-36)
(10 1.16642136e-37 -6.609870033e-38)
(10 3.649432069e-39 -2.068058123e-39)
(10 1.141813318e-40 -6.470421321e-41)
(10 3.572439844e-42 -2.024428212e-42)
(10 1.117724433e-43 -6.333914564e-44)
(10 3.497071927e-45 -1.981718763e-45)
(10 1.094143753e-46 -6.200287697e-47)
(10 3.42329405e-48 -1.939910357e-48)
(10 1.071060555e-49 -6.069479961e-50)
(10 3.351072669e-51 -1.898983985e-51)
(10 1.048464345e-52 -5.941431881e-53)
(10 3.280374945e-54 -1.858921038e-54)
(10 -4.316448681e-16 3.538706051e-15)
)
;

boundaryField
{
    left
    {
        type            dirichlet;
        value           uniform (4 0 0);
    }
    right
    {
        type            dirichlet;
        value           uniform (4 0 0);
    }
    sides
    {
        type            empty;
    }
}


// ************************************************************************* //
