/*--------------------------------*- C++ -*----------------------------------*\
| =========                 |                                                 |
| \\      /  F ield         | foam-extend: Open Source CFD                    |
|  \\    /   O peration     | Version:     4.1                                |
|   \\  /    A nd           | Web:         http://www.foam-extend.org         |
|    \\/     M anipulation  |                                                 |
\*---------------------------------------------------------------------------*/
FoamFile
{
    version     2.0;
    format      ascii;
    class       cellScalarField;
    location    "27.1";
    object      T;
}
// * * * * * * * * * * * * * * * * * * * * * * * * * * * * * * * * * * * * * //

dimensions      [0 0 0 0 1 0 0];

internalField   nonuniform 
100
(
(4 -5.703630593e-17 1.624202108e-17)
(4 2.366465906e-18 1.405270712e-16)
(4 6.265879888e-17 -1.177235155e-16)
(4 -1.798439658e-17 9.220810452e-18)
(4 -1.056773151e-16 -1.123750899e-16)
(4 -2.584668995e-16 5.867361874e-17)
(4 3.915039024e-16 7.212914697e-17)
(4 -3.158525216e-16 -3.385600574e-17)
(4 6.796906146e-16 1.232488099e-16)
(4 -1.320034045e-15 -5.493185898e-17)
(4 3.049815664e-16 6.761110173e-17)
(4 -1.254616842e-16 -1.881778405e-17)
(4 8.449024181e-16 -2.922682357e-17)
(4 1.214293798e-16 2.209593707e-16)
(4 -7.4071279e-16 4.893955846e-17)
(4 9.774686357e-16 1.163389558e-16)
(4 -1.139142743e-15 1.150201735e-16)
(4 9.427622549e-16 -7.614056316e-17)
(4 -8.255706859e-16 1.660042493e-16)
(4 7.924149552e-16 5.610240422e-17)
(4 -7.025612142e-16 1.609075168e-16)
(4 3.138117311e-16 -1.659806816e-16)
(4 -2.214772985e-16 4.968763194e-17)
(4 1.599009212e-16 8.032371977e-17)
(4 -1.455690717e-16 -1.271925722e-16)
(4 -1.102344705e-16 -8.51184004e-17)
(4 6.250471939e-17 -7.901255574e-17)
(4 -9.346796915e-17 1.350068829e-16)
(4 -4.315283314e-16 -1.973874654e-16)
(4 4.920245404e-16 6.226947666e-17)
(4 5.851012564e-15 3.900188664e-15)
(4 8.266503073e-14 4.458417613e-14)
(4 9.637452889e-13 5.032832134e-13)
(4 1.057651521e-11 5.317284423e-12)
(4 1.073399575e-10 5.175708e-11)
(4.000000001 1.001875709e-09 4.605216746e-10)
(4.000000009 8.53727461e-09 3.718130589e-09)
(4.00000007 6.595684892e-08 2.701823939e-08)
(4.000000509 4.578967441e-07 1.746225267e-07)
(4.000003305 2.823423969e-06 9.899430949e-07)
(4.000019016 1.528594474e-05 4.865628166e-06)
(4.000096283 7.207926424e-05 2.059289365e-05)
(4.000427249 0.0002949756234 7.488074238e-05)
(4.001660793 0.001047941347 0.0002341464569)
(4.005668739 0.003241105377 0.0006312011033)
(4.017061862 0.008764210638 0.001471295127)
(4.045523672 0.0208230927 0.002972840343)
(4.108312313 0.04369433538 0.005213306054)
(4.231230531 0.08138752985 0.007925799546)
(4.445780678 0.135226287 0.01039127541)
(4.781198603 0.2013444353 0.0115907463)
(5.25287977 0.2698224723 0.0106411047)
(5.85193372 0.326771322 0.007304131462)
(6.541670728 0.3589999498 0.002233138464)
(7.264188446 0.3590756604 -0.003245668812)
(7.955093964 0.3280832136 -0.007708831942)
(8.560115753 0.2747084202 -0.01022322928)
(9.046758097 0.2114267627 -0.0106239673)
(9.407315461 0.1500003844 -0.009397194157)
(9.654058473 0.09836817165 -0.007324013039)
(9.810426855 0.05978315879 -0.005124010607)
(9.902422312 0.03375586204 -0.00325566664)
(9.952787845 0.01775030464 -0.0018939478)
(9.978506404 0.008712616972 -0.001014975235)
(9.990782655 0.004000740854 -0.0005035337477)
(9.996271952 0.001722302523 -0.0002321998632)
(9.998576011 0.0006965487758 -9.988172444e-05)
(9.999485632 0.0002651746735 -4.020259275e-05)
(9.99982405 9.521104433e-05 -1.518397743e-05)
(9.999942922 3.23017532e-05 -5.395050133e-06)
(9.999982416 1.037362405e-05 -1.807651468e-06)
(9.999994848 3.159054725e-06 -5.724062865e-07)
(9.999998563 9.137720825e-07 -1.716590875e-07)
(9.999999618 2.514667531e-07 -4.884871193e-08)
(9.999999903 6.594316807e-08 -1.321507446e-08)
(9.999999976 1.650316782e-08 -3.404728354e-09)
(9.999999995 3.947420529e-09 -8.36800458e-10)
(9.999999999 9.036945917e-10 -1.965083244e-10)
(10 1.982867631e-10 -4.415873115e-11)
(10 4.17587899e-11 -9.511248107e-12)
(10 8.446713315e-12 -1.965947522e-12)
(10 1.640836804e-12 -3.904663279e-13)
(10 3.064790471e-13 -7.339186295e-14)
(10 6.084346116e-14 -1.459576493e-14)
(10 1.089815175e-14 -2.269505466e-15)
(10 1.339539679e-15 -1.065399222e-15)
(10 3.148086042e-16 4.347576037e-16)
(10 -1.378912751e-15 1.049351511e-15)
(10 2.206114447e-16 -1.684190747e-16)
(10 -3.816679249e-16 -1.010645658e-16)
(10 4.434004524e-16 -3.39257551e-16)
(10 -7.47714586e-16 -6.099654166e-18)
(10 5.514020208e-17 -3.429173411e-17)
(10 -3.275518498e-16 -3.245353644e-16)
(10 3.29829979e-16 1.982866102e-16)
(10 -1.12458244e-16 6.173875928e-16)
(10 -1.664811875e-16 2.744878924e-16)
(10 -3.881435582e-16 -5.769614689e-16)
(10 4.488759414e-16 -3.178219678e-16)
(10 -5.699036528e-16 2.374879084e-15)
)
;

boundaryField
{
    left
    {
        type            dirichlet;
        value           uniform (4 0 0);
    }
    right
    {
        type            dirichlet;
        value           uniform (4 0 0);
    }
    sides
    {
        type            empty;
    }
}


// ************************************************************************* //
