/*--------------------------------*- C++ -*----------------------------------*\
| =========                 |                                                 |
| \\      /  F ield         | foam-extend: Open Source CFD                    |
|  \\    /   O peration     | Version:     4.1                                |
|   \\  /    A nd           | Web:         http://www.foam-extend.org         |
|    \\/     M anipulation  |                                                 |
\*---------------------------------------------------------------------------*/
FoamFile
{
    version     2.0;
    format      ascii;
    class       cellScalarField;
    location    "16.3";
    object      T;
}
// * * * * * * * * * * * * * * * * * * * * * * * * * * * * * * * * * * * * * //

dimensions      [0 0 0 0 1 0 0];

internalField   nonuniform 
100
(
(4 -5.703630593e-17 1.624202108e-17)
(4 -1.09040477e-16 -4.722643258e-17)
(4 -1.936487321e-17 1.304774055e-16)
(4 1.691035605e-16 -2.034961624e-16)
(4 -8.274854464e-17 1.295297688e-17)
(4 -4.786330369e-16 -1.04053232e-16)
(4 4.303445605e-16 -4.388039567e-18)
(4 -5.003500627e-16 -1.378054526e-16)
(4 1.081870916e-15 -1.673211444e-16)
(4 -1.568413644e-15 5.607300988e-18)
(4 1.107423602e-16 6.31973008e-17)
(4 1.581716101e-15 2.411637352e-16)
(4 7.730868175e-16 -1.024175628e-16)
(4 1.642646054e-15 1.545923095e-15)
(4 5.194592849e-14 3.354726393e-14)
(4 8.932457494e-13 5.676190857e-13)
(4 1.62097309e-11 1.022251314e-11)
(4 2.536311557e-10 1.459452214e-10)
(4.000000003 3.456697924e-09 1.953759878e-09)
(4.00000004 4.400847546e-08 2.349547086e-08)
(4.000000461 4.85503361e-07 2.399398401e-07)
(4.000004605 4.660077865e-06 2.159414021e-06)
(4.000040491 3.924458402e-05 1.659257243e-05)
(4.000304283 0.0002752127118 0.0001011719059)
(4.001870004 0.001528452423 0.0004710376619)
(4.009193466 0.006614495762 0.001667075988)
(4.036177493 0.02244012169 0.004523674161)
(4.115356297 0.06054411671 0.009497543908)
(4.303032602 0.1319936978 0.01546853907)
(4.667541406 0.2360535384 0.01930492104)
(5.255343021 0.3510200564 0.01753839711)
(6.051738992 0.4392887709 0.009306610063)
(6.967991183 0.467652956 -0.002335557593)
(7.87171535 0.4275946417 -0.01236893598)
(8.642531233 0.3387364863 -0.01723973617)
(9.215587759 0.2343561371 -0.01666879504)
(9.58965436 0.1426501074 -0.01281152095)
(9.805506277 0.07691706545 -0.008238355415)
(9.916316885 0.03697524978 -0.004553453315)
(9.96722957 0.01594243317 -0.002200876146)
(9.988284208 0.006200448864 -0.0009419484426)
(9.996163296 0.002187020853 -0.0003604907197)
(9.998845065 0.0007031638764 -0.0001243741803)
(9.999679293 0.0002070763312 -3.895640257e-05)
(9.999917558 5.611265685e-05 -1.114622195e-05)
(9.999980313 1.405168246e-05 -2.929487091e-06)
(9.999995618 3.265218252e-06 -7.108300293e-07)
(9.999999088 7.067961534e-07 -1.599786162e-07)
(9.999999822 1.430414794e-07 -3.353775002e-08)
(9.999999967 2.715896753e-08 -6.575015723e-09)
(9.999999994 4.853544659e-09 -1.20987752e-09)
(9.999999999 8.188955389e-10 -2.096736286e-10)
(10 1.308230003e-10 -3.433203783e-11)
(10 1.984068168e-11 -5.326336199e-12)
(10 2.864142565e-12 -7.856310081e-13)
(10 3.931450851e-13 -1.105956049e-13)
(10 5.316040694e-14 -1.585042094e-14)
(10 3.970365719e-15 -1.428656737e-15)
(10 -7.573909359e-16 -1.529023742e-16)
(10 4.134681724e-17 -5.44408842e-16)
(10 -3.519858113e-17 2.275780981e-16)
(10 1.225080774e-16 -3.455146462e-16)
(10 1.356364119e-16 -4.704650425e-16)
(10 -2.35538238e-16 -7.093311328e-16)
(10 2.308043206e-16 -2.050025022e-16)
(10 -2.214813858e-16 -4.876686107e-17)
(10 2.040738734e-16 3.685936263e-16)
(10 -4.02744852e-16 2.512804838e-16)
(10 2.667870507e-16 2.90695458e-16)
(10 -1.032093189e-16 -1.385386799e-18)
(10 -3.200409727e-16 -2.867707619e-18)
(10 -1.187883313e-16 -2.002884361e-16)
(10 2.158937965e-16 -1.21764454e-16)
(10 -8.942313408e-17 6.179253877e-17)
(10 -3.852405815e-16 9.387715096e-17)
(10 -3.549489286e-16 -4.897365113e-16)
(10 2.556975729e-16 -6.041138437e-16)
(10 -1.094208641e-16 -9.045008251e-17)
(10 9.292009039e-17 4.603629977e-17)
(10 6.329030511e-17 -5.390140191e-16)
(10 1.470598277e-16 -3.681268263e-16)
(10 4.794586842e-16 -6.931782146e-17)
(10 -8.026764002e-17 6.492246638e-16)
(10 2.839321871e-17 4.523946615e-16)
(10 1.790484254e-16 1.169724205e-16)
(10 -4.806567887e-16 -2.112401122e-16)
(10 1.739796489e-16 -1.583087012e-17)
(10 -1.242461931e-17 5.944047159e-16)
(10 -4.859191107e-16 9.89597154e-17)
(10 -2.178020518e-16 -1.481142673e-16)
(10 3.050703274e-16 -9.184097761e-17)
(10 3.807675061e-16 -2.155271319e-16)
(10 -2.704193452e-16 -1.291939223e-16)
(10 2.424831337e-16 -7.765788413e-17)
(10 1.149840255e-16 -4.874617435e-16)
(10 5.144895136e-16 -4.080927174e-16)
(10 7.708487291e-17 -2.159666324e-16)
(10 -3.280510183e-16 -8.296460779e-17)
(10 -5.072453356e-16 2.598252917e-16)
(10 -6.186677778e-16 3.64222411e-15)
)
;

boundaryField
{
    left
    {
        type            dirichlet;
        value           uniform (4 0 0);
    }
    right
    {
        type            dirichlet;
        value           uniform (4 0 0);
    }
    sides
    {
        type            empty;
    }
}


// ************************************************************************* //
