/*--------------------------------*- C++ -*----------------------------------*\
| =========                 |                                                 |
| \\      /  F ield         | foam-extend: Open Source CFD                    |
|  \\    /   O peration     | Version:     4.1                                |
|   \\  /    A nd           | Web:         http://www.foam-extend.org         |
|    \\/     M anipulation  |                                                 |
\*---------------------------------------------------------------------------*/
FoamFile
{
    version     2.0;
    format      ascii;
    class       cellScalarField;
    location    "0.9";
    object      T;
}
// * * * * * * * * * * * * * * * * * * * * * * * * * * * * * * * * * * * * * //

dimensions      [0 0 0 0 1 0 0];

internalField   nonuniform 10((4.06807339 0.1729424227 0.2080743425) (6.078537263 1.846554732 0.05186795571) (9.133313962 0.8786789786 -0.2270007417) (9.924786991 0.09280705491 -0.03171438465) (9.99551648 0.006044045535 -0.002288117016) (9.999781668 0.0003095055557 -0.0001235990734) (9.999990628 1.372663107e-05 -5.667566234e-06) (9.999999631 5.534384194e-07 -2.339479248e-07) (9.999999986 2.085953979e-08 -8.980211321e-09) (10 7.480296275e-10 -3.2701674e-10));

boundaryField
{
    left
    {
        type            dirichlet;
        value           uniform (4 0 0);
    }
    right
    {
        type            dirichlet;
        value           uniform (4 0 0);
    }
    sides
    {
        type            empty;
    }
}


// ************************************************************************* //
