/*--------------------------------*- C++ -*----------------------------------*\
| =========                 |                                                 |
| \\      /  F ield         | foam-extend: Open Source CFD                    |
|  \\    /   O peration     | Version:     4.1                                |
|   \\  /    A nd           | Web:         http://www.foam-extend.org         |
|    \\/     M anipulation  |                                                 |
\*---------------------------------------------------------------------------*/
FoamFile
{
    version     2.0;
    format      ascii;
    class       cellScalarField;
    location    "39.7";
    object      T;
}
// * * * * * * * * * * * * * * * * * * * * * * * * * * * * * * * * * * * * * //

dimensions      [0 0 0 0 1 0 0];

internalField   nonuniform 
100
(
(4 -5.703630593e-17 1.624202108e-17)
(4 -1.08002714e-17 2.953608253e-17)
(4 -1.6823241e-17 1.279677792e-17)
(4 -3.577470672e-17 -1.24918648e-17)
(4 -1.073992874e-16 -1.089801509e-16)
(4 -5.672790441e-16 -1.034188132e-16)
(4 4.137331057e-16 -4.923322433e-17)
(4 -4.395956324e-16 -7.124139374e-17)
(4 8.853300038e-16 5.763522049e-17)
(4 -1.332607834e-15 2.584538239e-16)
(4 3.351993237e-16 -6.10249647e-17)
(4 -1.426250038e-16 1.41274599e-16)
(4 8.926064577e-16 -9.316688435e-17)
(4 2.153953607e-16 1.215761023e-16)
(4 -2.681291132e-16 1.971543021e-16)
(4 -2.553376421e-16 1.592484323e-16)
(4 3.184286748e-17 -8.467811829e-17)
(4 8.139005677e-18 -4.217951042e-17)
(4 -9.678779963e-17 2.231012898e-16)
(4 -2.994177791e-17 -2.537283893e-17)
(4 4.929736877e-17 3.438010757e-16)
(4 7.157042892e-18 -1.448428356e-17)
(4 1.448460944e-17 -8.250803747e-17)
(4 -1.751553754e-16 -1.690331105e-17)
(4 5.289950899e-17 3.263053067e-17)
(4 -2.032875935e-16 1.155063928e-16)
(4 1.340276472e-17 1.407291766e-17)
(4 9.160299261e-17 -9.942563859e-17)
(4 -3.558038339e-16 1.171409232e-16)
(4 1.833526767e-16 -3.36813098e-16)
(4 8.569117698e-16 2.440011511e-17)
(4 -9.151115198e-16 -4.118264926e-16)
(4 1.02175998e-15 3.640220039e-17)
(4 -1.359083825e-15 -2.203552732e-16)
(4 1.061958904e-15 -1.341538532e-17)
(4 -8.936587081e-16 9.859815249e-17)
(4 1.147856263e-15 -1.114596315e-16)
(4 -1.378009095e-15 7.598933616e-17)
(4 1.349715513e-15 -1.794385323e-16)
(4 -5.012716617e-16 -7.375673769e-17)
(4 4.380147921e-16 -6.709341529e-17)
(4 -1.138545673e-16 -1.79672916e-17)
(4 -2.173860192e-16 1.094071116e-16)
(4 -1.105429193e-17 -3.989015461e-17)
(4 -3.910332967e-16 -8.779582766e-17)
(4 8.625833438e-16 -8.270810608e-19)
(4 -1.01396806e-15 2.624102185e-16)
(4 1.030342813e-15 7.30727993e-17)
(4 -1.087494609e-15 1.9833254e-16)
(4 3.256994737e-16 1.60784209e-16)
(4 2.28979525e-15 1.011052665e-15)
(4 2.657084062e-14 1.343582623e-14)
(4 2.448597312e-13 1.115814777e-13)
(4 2.045942018e-12 8.825792383e-13)
(4 1.579086372e-11 6.53959526e-12)
(4 1.135428296e-10 4.495605885e-11)
(4.000000001 7.573134261e-10 2.853103812e-10)
(4.000000005 4.663947087e-09 1.663545041e-09)
(4.000000032 2.640406863e-08 8.869094701e-09)
(4.000000174 1.368632424e-07 4.30603006e-08)
(4.000000866 6.474664067e-07 1.898020443e-07)
(4.000003938 2.789599168e-06 7.581123131e-07)
(4.000016356 1.093514199e-05 2.741799466e-06)
(4.000062095 3.899998042e-05 8.979604961e-06)
(4.000215614 0.0001266520562 2.665193322e-05)
(4.000685715 0.0003750408055 7.177210723e-05)
(4.002001181 0.00101449906 0.0001756005821)
(4.005371371 0.002512069404 0.0003908677913)
(4.013293141 0.005706635199 0.0007924815219)
(4.030414142 0.01192022816 0.001464822064)
(4.06451243 0.02294741745 0.002469295033)
(4.127229084 0.04080391635 0.003794602832)
(4.233989801 0.06716418481 0.005306975494)
(4.402537692 0.1025557052 0.006730281913)
(4.649819894 0.1455635535 0.007684573475)
(4.987621832 0.192427001 0.007789385148)
(5.418089339 0.237364162 0.006802217791)
(5.93071993 0.2737043825 0.004733806358)
(6.502199036 0.2955394398 0.001881583485)
(7.099569859 0.2993198525 -0.001243322812)
(7.686009839 0.2847952714 -0.004069424131)
(8.22751281 0.2549595854 -0.006134293734)
(8.698504263 0.2150752947 -0.007202014797)
(9.084937414 0.1712010722 -0.007290645353)
(9.384424268 0.128769745 -0.006615435625)
(9.60395541 0.09164044429 -0.005486316187)
(9.756355028 0.0617849153 -0.004206346625)
(9.856672839 0.03951283132 -0.003003967163)
(9.919363015 0.02399807983 -0.002008972094)
(9.956598234 0.0138581243 -0.001263279915)
(9.977642451 0.007617538585 -0.0007493241142)
(9.988972039 0.003990122791 -0.0004203767364)
(9.994788561 0.001993818532 -0.0002235579293)
(9.997639145 0.0009514085688 -0.0001129231614)
(9.998974104 0.0004339836339 -5.427290159e-05)
(9.999572097 0.0001894245864 -2.485898068e-05)
(9.99982857 7.919128614e-05 -1.086725359e-05)
(9.999933987 3.174006301e-05 -4.540274487e-06)
(9.99997555 1.220756682e-05 -1.815188014e-06)
(9.999991284 4.509554303e-06 -6.952765168e-07)
)
;

boundaryField
{
    left
    {
        type            dirichlet;
        value           uniform (4 0 0);
    }
    right
    {
        type            dirichlet;
        value           uniform (4 0 0);
    }
    sides
    {
        type            empty;
    }
}


// ************************************************************************* //
