/*--------------------------------*- C++ -*----------------------------------*\
| =========                 |                                                 |
| \\      /  F ield         | foam-extend: Open Source CFD                    |
|  \\    /   O peration     | Version:     4.1                                |
|   \\  /    A nd           | Web:         http://www.foam-extend.org         |
|    \\/     M anipulation  |                                                 |
\*---------------------------------------------------------------------------*/
FoamFile
{
    version     2.0;
    format      ascii;
    class       cellScalarField;
    location    "47";
    object      T;
}
// * * * * * * * * * * * * * * * * * * * * * * * * * * * * * * * * * * * * * //

dimensions      [0 0 0 0 1 0 0];

internalField   nonuniform 
100
(
(4 -5.703630593e-17 1.624202108e-17)
(4 -8.297769026e-17 1.407953461e-16)
(4 -1.024556383e-16 -1.315601466e-16)
(4 -3.491728154e-18 3.160418657e-17)
(4 1.66794035e-16 5.936041519e-18)
(4 -4.398892129e-16 -9.181998259e-17)
(4 2.983976421e-16 1.457117215e-18)
(4 -3.965123916e-16 9.001159224e-18)
(4 8.627219104e-16 8.924522674e-17)
(4 -1.412214565e-15 1.993923921e-16)
(4 4.345066134e-16 -7.563681108e-17)
(4 -3.50471797e-16 -5.836363842e-17)
(4 9.662054909e-16 -7.807784326e-17)
(4 -3.461182369e-16 -1.969122206e-16)
(4 5.55868285e-17 -1.659666055e-16)
(4 9.273705596e-17 8.445920232e-18)
(4 7.830446538e-18 5.26129068e-17)
(4 -1.20188079e-16 -1.494838351e-16)
(4 -8.175300908e-17 -2.027069425e-16)
(4 4.527763188e-17 -1.33646449e-16)
(4 1.786160426e-16 -1.632446589e-16)
(4 -1.503446334e-16 -2.14942444e-17)
(4 4.821079105e-17 -2.960541516e-17)
(4 -1.968149358e-16 -4.192155505e-17)
(4 8.209039298e-17 5.858650695e-17)
(4 6.4335159e-17 -6.380815624e-17)
(4 9.850258007e-17 3.636584959e-17)
(4 -2.15940472e-16 -1.472159144e-16)
(4 -2.851678938e-16 3.596343749e-17)
(4 4.084456805e-16 8.938440816e-18)
(4 -1.37175443e-16 9.502221291e-17)
(4 3.074626302e-17 -5.174410435e-17)
(4 -4.797581461e-17 6.063762003e-17)
(4 -5.360749162e-16 2.162917206e-16)
(4 3.864426266e-16 8.724563459e-17)
(4 -3.469742543e-16 1.581717965e-16)
(4 6.955836238e-16 1.051354473e-16)
(4 -1.04637341e-15 -9.475826766e-17)
(4 5.753735645e-16 -9.806776569e-17)
(4 -1.559490186e-17 -4.891828724e-17)
(4 3.861067804e-17 4.183298547e-17)
(4 2.606558996e-17 6.383998422e-17)
(4 -3.356074946e-17 4.897895883e-17)
(4 -3.397882263e-17 2.756497504e-16)
(4 -4.883762231e-16 3.279202692e-16)
(4 1.001978889e-15 -1.008441244e-16)
(4 -8.415247847e-16 -5.238156044e-17)
(4 8.989991623e-16 -4.622225898e-17)
(4 -8.543995436e-16 -1.017675519e-16)
(4 4.433633631e-16 1.459213662e-16)
(4 -2.488594956e-16 7.577291837e-17)
(4 7.074596607e-17 -1.031457834e-16)
(4 -5.452846256e-17 3.138670651e-16)
(4 3.365850393e-17 -2.635300147e-17)
(4 -6.790790546e-17 1.400768201e-16)
(4 -1.111040495e-16 1.166864844e-16)
(4 -1.316245631e-16 2.047601378e-16)
(4 1.636554788e-16 -6.696008346e-17)
(4 -6.671578446e-17 3.151437181e-16)
(4 -2.091047635e-16 5.722121959e-17)
(4 1.240975196e-17 9.20356602e-17)
(4 1.552577037e-16 3.124812072e-16)
(4 3.132276915e-15 6.552213027e-16)
(4 2.055357546e-14 1.033922288e-14)
(4 1.76477073e-13 7.209951178e-14)
(4 1.262609927e-12 5.039152048e-13)
(4 8.555805584e-12 3.271718655e-12)
(4 5.4241905e-11 1.984171977e-11)
(4 3.209661509e-10 1.119467701e-10)
(4.000000002 1.767893777e-09 5.857067714e-10)
(4.000000012 9.040145082e-09 2.834254072e-09)
(4.000000057 4.2823928e-08 1.265826675e-08)
(4.000000263 1.876332675e-07 5.210151291e-08)
(4.000001116 7.596904471e-07 1.97472567e-07)
(4.000004392 2.841314674e-06 6.890198063e-07)
(4.000016025 9.818409848e-06 2.213695124e-06)
(4.000054241 3.136721834e-05 6.552579961e-06)
(4.000170459 9.273547406e-05 1.788413992e-05)
(4.000498022 0.0002540280943 4.505039323e-05)
(4.001354786 0.0006456392506 0.0001048427932)
(4.003437312 0.001524843158 0.0002256358267)
(4.008148567 0.003351735335 0.0004494468112)
(4.018083611 0.006867798552 0.0008291558263)
(4.037643484 0.0131390222 0.001417234604)
(4.073651362 0.02350676943 0.002244255352)
(4.135727743 0.03938953651 0.003290328326)
(4.236096969 0.06191327414 0.004459190696)
(4.388520171 0.09141970147 0.005569407272)
(4.606236223 0.1269893118 0.006375689033)
(4.89913126 0.1661742628 0.006623518661)
(5.270743259 0.2051196219 0.006124795153)
(5.715967101 0.2391417129 0.004828537232)
(6.22029645 0.2636615629 0.002857249582)
(6.761069981 0.2752339392 0.0004902670077)
(7.310589323 0.2723476662 -0.001903680145)
(7.840376657 0.2557396595 -0.003961435447)
(8.32548678 0.2281370484 -0.005414126502)
(8.747818564 0.1935408409 -0.00614045931)
(9.097749625 0.1563040774 -0.006171841463)
(9.373968975 0.1202866797 -0.005655831872)
)
;

boundaryField
{
    left
    {
        type            dirichlet;
        value           uniform (4 0 0);
    }
    right
    {
        type            dirichlet;
        value           uniform (4 0 0);
    }
    sides
    {
        type            empty;
    }
}


// ************************************************************************* //
