/*--------------------------------*- C++ -*----------------------------------*\
| =========                 |                                                 |
| \\      /  F ield         | foam-extend: Open Source CFD                    |
|  \\    /   O peration     | Version:     4.1                                |
|   \\  /    A nd           | Web:         http://www.foam-extend.org         |
|    \\/     M anipulation  |                                                 |
\*---------------------------------------------------------------------------*/
FoamFile
{
    version     2.0;
    format      ascii;
    class       cellScalarField;
    location    "4.5";
    object      T;
}
// * * * * * * * * * * * * * * * * * * * * * * * * * * * * * * * * * * * * * //

dimensions      [0 0 0 0 1 0 0];

internalField   nonuniform 
100
(
(3.999999999 -6.920202496e-10 1.589837991e-09)
(4.000000058 7.068361031e-08 -3.935704508e-08)
(3.999999743 -4.080231631e-07 1.916468935e-06)
(4.000048337 7.035307203e-05 2.315408851e-05)
(4.000470836 0.0003439320796 0.0003707569554)
(4.010925083 0.01526414151 0.01001836861)
(4.151030984 0.1535497239 0.04793441053)
(4.807134305 0.5290244359 0.07164079507)
(6.237046039 0.8624956743 0.01711257861)
(7.94086085 0.7819731806 -0.05002724289)
(9.170569695 0.4379275402 -0.05585038739)
(9.751300794 0.1643306744 -0.0290269493)
(9.942835414 0.04424792069 -0.0095106638)
(9.989566029 0.009063051248 -0.002221511976)
(9.998434959 0.001482309067 -0.0003990610743)
(9.999801173 0.0002013372583 -5.814047576e-05)
(9.999978056 2.3430363e-05 -7.144105966e-06)
(9.999997852 2.3945716e-06 -7.625215699e-07)
(9.99999981 2.191738878e-07 -7.231611331e-08)
(9.999999985 1.825074176e-08 -6.202904912e-09)
(9.999999999 1.400279782e-09 -4.880310137e-10)
(10 1.000201252e-10 -3.562214316e-11)
(10 6.708191928e-12 -2.434738339e-12)
(10 4.242385356e-13 -1.565392704e-13)
(10 2.429254173e-14 -9.971567553e-15)
(10 1.851152372e-15 1.263115805e-16)
(10 -1.092252604e-15 -1.665517902e-17)
(10 9.577939936e-16 -4.70407891e-16)
(10 -8.841813575e-17 2.938139223e-16)
(10 -5.196160111e-17 -2.335136677e-16)
(10 1.753117868e-16 -5.971912523e-16)
(10 -3.342069214e-16 -5.308697913e-17)
(10 5.057273324e-16 -2.39508335e-16)
(10 -1.83235918e-16 4.109673783e-16)
(10 -2.317924971e-16 1.672680442e-16)
(10 1.829902269e-17 2.51741375e-16)
(10 -2.296711421e-16 5.978100565e-16)
(10 -1.660537762e-16 1.43263874e-16)
(10 -1.301662391e-16 2.758092262e-16)
(10 -2.410040436e-16 1.553773991e-17)
(10 -3.093907409e-16 6.489204363e-17)
(10 3.124138361e-16 -3.661027552e-16)
(10 3.185463205e-17 4.968406541e-17)
(10 -1.456091117e-16 -3.763257676e-16)
(10 4.130560517e-17 4.553089121e-16)
(10 -1.080810088e-16 -2.660973724e-18)
(10 4.231710706e-16 5.910967819e-16)
(10 -2.706746476e-16 1.292976294e-16)
(10 2.353702228e-16 1.995407413e-16)
(10 -2.666489959e-16 -2.68807183e-17)
(10 1.364853921e-16 1.749757891e-17)
(10 -2.188385902e-16 5.564619917e-16)
(10 -1.000862169e-15 5.078880463e-16)
(10 1.354184939e-16 -7.673887637e-17)
(10 4.236895964e-18 -2.400961834e-18)
(10 1.325615644e-19 -7.511991314e-20)
(10 4.147509994e-21 -2.350308642e-21)
(10 1.297649075e-22 -7.353510517e-23)
(10 4.060009799e-24 -2.300724081e-24)
(10 1.270272517e-25 -7.198373192e-26)
(10 3.974355599e-27 -2.252185607e-27)
(10 1.243473524e-28 -7.046508805e-29)
(10 3.890508449e-30 -2.204671151e-30)
(10 1.217239909e-31 -6.897848307e-32)
(10 3.808430225e-33 -2.158159109e-33)
(10 1.191559747e-34 -6.752324105e-35)
(10 3.728083609e-36 -2.112628333e-36)
(10 1.16642136e-37 -6.609870033e-38)
(10 3.649432069e-39 -2.068058123e-39)
(10 1.141813318e-40 -6.470421321e-41)
(10 3.572439844e-42 -2.024428212e-42)
(10 1.117724433e-43 -6.333914564e-44)
(10 3.497071927e-45 -1.981718763e-45)
(10 1.094143753e-46 -6.200287697e-47)
(10 3.42329405e-48 -1.939910357e-48)
(10 1.071060555e-49 -6.069479961e-50)
(10 3.351072669e-51 -1.898983985e-51)
(10 1.048464345e-52 -5.941431881e-53)
(10 3.280374945e-54 -1.858921038e-54)
(10 1.026344847e-55 -5.816085238e-56)
(10 3.211168734e-57 -1.819703301e-57)
(10 1.004692006e-58 -5.693383038e-59)
(10 3.143422569e-60 -1.781312942e-60)
(10 9.834959756e-62 -5.573269491e-62)
(10 3.077105648e-63 -1.743732507e-63)
(10 9.627471188e-65 -5.455689985e-65)
(10 3.012187818e-66 -1.706944907e-66)
(10 9.424360014e-68 -5.340591059e-68)
(10 2.948639562e-69 -1.670933417e-69)
(10 9.225533886e-71 -5.22792038e-71)
(10 2.886431987e-72 -1.635681663e-72)
(10 9.030902402e-74 -5.117626719e-74)
(10 2.825536807e-75 -1.601173617e-75)
(10 8.840377066e-77 -5.009659929e-77)
(10 2.765926336e-78 -1.567393588e-78)
(10 8.653871251e-80 -4.903970918e-80)
(10 2.707573469e-81 -1.534326218e-81)
(10 8.471300157e-83 -4.800511633e-83)
(10 2.650451675e-84 -1.501956472e-84)
(10 -1.699185243e-15 3.71182709e-15)
)
;

boundaryField
{
    left
    {
        type            dirichlet;
        value           uniform (4 0 0);
    }
    right
    {
        type            dirichlet;
        value           uniform (4 0 0);
    }
    sides
    {
        type            empty;
    }
}


// ************************************************************************* //
