/*--------------------------------*- C++ -*----------------------------------*\
| =========                 |                                                 |
| \\      /  F ield         | foam-extend: Open Source CFD                    |
|  \\    /   O peration     | Version:     4.1                                |
|   \\  /    A nd           | Web:         http://www.foam-extend.org         |
|    \\/     M anipulation  |                                                 |
\*---------------------------------------------------------------------------*/
FoamFile
{
    version     2.0;
    format      ascii;
    class       cellScalarField;
    location    "30.5";
    object      T;
}
// * * * * * * * * * * * * * * * * * * * * * * * * * * * * * * * * * * * * * //

dimensions      [0 0 0 0 1 0 0];

internalField   nonuniform 
100
(
(4 -5.703630593e-17 1.624202108e-17)
(4 -1.747742634e-16 -4.551041826e-17)
(4 2.023787224e-17 1.100237184e-17)
(4 -9.84131767e-17 2.714321698e-17)
(4 -1.736011353e-16 -4.475432121e-17)
(4 -4.099552168e-16 -1.832654255e-17)
(4 4.449253594e-16 -2.53873319e-18)
(4 -6.036852513e-16 6.633825236e-17)
(4 9.234766369e-16 6.819309931e-17)
(4 -1.271988657e-15 1.125773631e-16)
(4 3.455275031e-16 -2.84049727e-16)
(4 2.707600796e-17 -9.656518392e-17)
(4 1.015682579e-15 -1.783261237e-16)
(4 -4.263947445e-16 3.004326273e-16)
(4 -1.428084757e-16 -1.638101051e-16)
(4 5.202089093e-17 -2.935897939e-17)
(4 -3.187395814e-17 -2.596960235e-17)
(4 -2.413124619e-18 3.314894587e-16)
(4 -3.227335354e-17 5.439732703e-17)
(4 -2.065956378e-16 -3.073787921e-17)
(4 9.272004272e-17 1.356950535e-16)
(4 -7.130677875e-17 2.046897518e-16)
(4 -4.284801349e-17 -5.101542844e-17)
(4 -1.328343683e-16 -1.680591543e-16)
(4 2.357557987e-16 5.366989724e-17)
(4 -9.38155396e-17 4.313406793e-17)
(4 2.044247542e-16 -1.21872909e-16)
(4 -2.204663975e-16 -1.119542298e-16)
(4 -4.214184244e-16 1.104825422e-16)
(4 5.425847593e-16 2.281756579e-16)
(4 -2.785191387e-16 8.419415833e-17)
(4 3.116479726e-16 -2.088569423e-16)
(4 6.222569572e-18 3.179608359e-18)
(4 -4.909978206e-16 -1.277353345e-17)
(4 9.448598228e-16 4.364849363e-17)
(4 -4.65073491e-16 1.716222276e-15)
(4 2.682349271e-14 1.433520871e-14)
(4 2.970298767e-13 1.495183112e-13)
(4 3.048457481e-12 1.484821539e-12)
(4 2.916433146e-11 1.363909539e-11)
(4 2.580473867e-10 1.153396388e-10)
(4.000000002 2.09959592e-09 8.920583039e-10)
(4.000000017 1.56116103e-08 6.264516072e-09)
(4.000000119 1.053052058e-07 3.95873983e-08)
(4.000000754 6.388906713e-07 2.228990886e-07)
(4.000004306 3.457416947e-06 1.108647817e-06)
(4.000021975 1.658266146e-05 4.842747181e-06)
(4.000099841 7.024253564e-05 1.852782002e-05)
(4.000403298 0.000262568169 6.207102915e-05)
(4.001449774 0.0008672477292 0.0001823381197)
(4.004649802 0.002537860373 0.0004706802526)
(4.013353353 0.006602783403 0.001070127876)
(4.034483619 0.01533206213 0.002147067791)
(4.080447887 0.03190221532 0.003805523541)
(4.170376306 0.0597179322 0.005955821538)
(4.329214504 0.1009520905 0.008205689127)
(4.583402434 0.1546829769 0.009876566257)
(4.953218695 0.215573772 0.01020795243)
(5.443970621 0.2741598275 0.00869476935)
(6.039800661 0.3191656951 0.005383645785)
(6.703598219 0.3411218794 0.000938966168)
(7.384060463 0.3356545354 -0.003586812053)
(8.027590371 0.3048677526 -0.007163349408)
(8.590469397 0.2562455668 -0.009153761798)
(9.04690279 0.1997862615 -0.009470501673)
(9.390812003 0.1448208486 -0.008482641477)
(9.632113563 0.0978142542 -0.006775086897)
(9.790105081 0.06168641091 -0.004904457156)
(9.886829692 0.03639724143 -0.003251139663)
(9.942306283 0.02013176549 -0.001987833541)
(9.972171271 0.01045785212 -0.001127148569)
(9.987288682 0.005111346813 -0.0005952713505)
(9.994496638 0.002354612453 -0.0002938593157)
(9.997739283 0.00102406946 -0.0001360165529)
(9.99911792 0.000421188947 -5.919008974e-05)
(9.999672741 0.0001640786165 -2.42754888e-05)
(9.999884419 6.063503096e-05 -9.403990229e-06)
(9.999961097 2.128830416e-05 -3.448025325e-06)
(9.999987506 7.111062573e-06 -1.198865979e-06)
(9.999996168 2.263161644e-06 -3.959947072e-07)
(9.999998876 6.87191993e-07 -1.244685305e-07)
(9.999999684 1.993418627e-07 -3.728858989e-08)
(9.999999915 5.531417172e-08 -1.066349815e-08)
(9.999999978 1.470059259e-08 -2.915153693e-09)
(9.999999995 3.746455497e-09 -7.6289443e-10)
(9.999999999 9.166541318e-10 -1.913746032e-10)
(10 2.155696946e-10 -4.607730196e-11)
(10 4.877974285e-11 -1.066086999e-11)
(10 1.06329512e-11 -2.373773442e-12)
(10 2.232149887e-12 -5.075596311e-13)
(10 4.547181364e-13 -1.060434468e-13)
(10 8.747630776e-14 -2.135971118e-14)
(10 1.719431285e-14 -2.318532452e-15)
(10 7.365864607e-15 -2.3346062e-15)
(10 -1.131474124e-15 4.00429795e-16)
(10 5.816252092e-16 -6.066859307e-16)
(10 -1.462602571e-16 -2.92447555e-16)
(10 -5.278685758e-17 -3.827118419e-17)
(10 -1.298687751e-16 -2.29836899e-16)
(10 -1.155570272e-15 3.020115376e-15)
)
;

boundaryField
{
    left
    {
        type            dirichlet;
        value           uniform (4 0 0);
    }
    right
    {
        type            dirichlet;
        value           uniform (4 0 0);
    }
    sides
    {
        type            empty;
    }
}


// ************************************************************************* //
