/*--------------------------------*- C++ -*----------------------------------*\
| =========                 |                                                 |
| \\      /  F ield         | foam-extend: Open Source CFD                    |
|  \\    /   O peration     | Version:     4.1                                |
|   \\  /    A nd           | Web:         http://www.foam-extend.org         |
|    \\/     M anipulation  |                                                 |
\*---------------------------------------------------------------------------*/
FoamFile
{
    version     2.0;
    format      ascii;
    class       cellScalarField;
    location    "5.4";
    object      T;
}
// * * * * * * * * * * * * * * * * * * * * * * * * * * * * * * * * * * * * * //

dimensions      [0 0 0 0 1 0 0];

internalField   nonuniform 
100
(
(4 1.699220367e-11 -9.126009493e-12)
(4 -6.830625101e-10 7.580783815e-10)
(4.000000027 4.108863889e-08 -1.187683332e-09)
(4.000000009 -2.022226898e-07 3.779736703e-07)
(4.000013984 2.237872469e-05 1.185451837e-05)
(4.000198777 0.000171204957 9.581430333e-05)
(4.003024409 0.003907506444 0.002828359091)
(4.047022502 0.05189130866 0.02042008372)
(4.324989615 0.2532337462 0.05283830704)
(5.172019372 0.6000951407 0.05296253556)
(6.619894153 0.8076687804 0.0005526721651)
(8.149662402 0.6807811891 -0.04544611417)
(9.220455226 0.385836289 -0.04638117841)
(9.745256833 0.155743819 -0.02541632699)
(9.934116387 0.04703881746 -0.009315918124)
(9.986173618 0.01109642829 -0.002513529752)
(9.997584809 0.002121539593 -0.0005303262986)
(9.999640428 0.0003391954662 -9.141161253e-05)
(9.999953409 4.654880641e-05 -1.330962997e-05)
(9.99999465 5.602602502e-06 -1.680329754e-06)
(9.999999447 6.020223462e-07 -1.878090812e-07)
(9.999999948 5.860725277e-08 -1.88973077e-08)
(9.999999995 5.232317989e-09 -1.735242422e-09)
(10 4.32765224e-10 -1.470496297e-10)
(10 3.344233581e-11 -1.160710178e-11)
(10 2.433970819e-12 -8.601924253e-13)
(10 1.673494824e-13 -6.06393027e-14)
(10 1.098029751e-14 -4.435758913e-15)
(10 -1.012498761e-15 -2.765206613e-16)
(10 1.319170201e-15 -7.840343632e-16)
(10 -1.575756219e-16 -3.200773872e-16)
(10 8.347991048e-16 -1.635258924e-16)
(10 5.704797673e-17 -1.794746181e-17)
(10 2.732429224e-16 2.398604294e-16)
(10 3.182567613e-16 -6.573140708e-17)
(10 -2.558266211e-16 -6.406405095e-16)
(10 2.509611852e-16 -4.027059291e-17)
(10 -1.795496397e-16 -4.097186784e-16)
(10 2.845475165e-16 -3.749645787e-16)
(10 -1.359616903e-16 2.105842551e-16)
(10 -3.347906841e-16 -3.015740747e-16)
(10 -3.375673788e-16 -2.408583358e-16)
(10 2.896247662e-16 4.494383111e-16)
(10 -4.884850698e-16 4.162392125e-16)
(10 -3.416110942e-17 -2.017891943e-17)
(10 -1.211979198e-16 7.451011396e-17)
(10 -2.078303387e-16 3.386079107e-16)
(10 -3.460344676e-16 -5.482228377e-17)
(10 -4.077308312e-16 -3.072755195e-17)
(10 5.943933883e-16 -4.712290685e-16)
(10 -6.475134384e-18 1.05236753e-16)
(10 -1.593671191e-16 -5.750183036e-16)
(10 3.610322661e-16 -1.397187613e-16)
(10 -5.959907549e-17 -9.052737729e-17)
(10 3.634839453e-16 -1.278542971e-16)
(10 -1.675796112e-16 -3.525298529e-17)
(10 3.711401597e-16 3.213878139e-16)
(10 -4.577580063e-16 -7.78076163e-17)
(10 2.61971127e-16 2.944102588e-17)
(10 -1.365836193e-16 -1.744382481e-17)
(10 2.188365319e-16 -5.564608655e-16)
(10 1.000862126e-15 -5.078880228e-16)
(10 -1.354184948e-16 7.673887687e-17)
(10 -4.236895983e-18 2.400961845e-18)
(10 -1.325615648e-19 7.511991335e-20)
(10 -4.147510002e-21 2.350308647e-21)
(10 -1.297649077e-22 7.353510526e-23)
(10 -4.060009803e-24 2.300724083e-24)
(10 -1.270272518e-25 7.198373196e-26)
(10 -3.974355601e-27 2.252185608e-27)
(10 -1.243473524e-28 7.046508807e-29)
(10 -3.890508449e-30 2.204671151e-30)
(10 -1.217239909e-31 6.897848307e-32)
(10 -3.808430225e-33 2.158159109e-33)
(10 -1.191559747e-34 6.752324105e-35)
(10 -3.728083609e-36 2.112628334e-36)
(10 -1.16642136e-37 6.609870033e-38)
(10 -3.649432069e-39 2.068058123e-39)
(10 -1.141813318e-40 6.470421321e-41)
(10 -3.572439844e-42 2.024428212e-42)
(10 -1.117724433e-43 6.333914564e-44)
(10 -3.497071927e-45 1.981718763e-45)
(10 -1.094143753e-46 6.200287697e-47)
(10 -3.42329405e-48 1.939910357e-48)
(10 -1.071060555e-49 6.069479961e-50)
(10 -3.351072669e-51 1.898983985e-51)
(10 -1.048464345e-52 5.941431881e-53)
(10 -3.280374945e-54 1.858921038e-54)
(10 -1.026344847e-55 5.816085238e-56)
(10 -3.211168734e-57 1.819703301e-57)
(10 -1.004692006e-58 5.693383038e-59)
(10 -3.143422569e-60 1.781312942e-60)
(10 -9.834959756e-62 5.573269491e-62)
(10 -3.077105648e-63 1.743732507e-63)
(10 -9.627471188e-65 5.455689985e-65)
(10 -3.012187818e-66 1.706944907e-66)
(10 -9.424360014e-68 5.340591059e-68)
(10 -2.948639562e-69 1.670933417e-69)
(10 -9.225533886e-71 5.22792038e-71)
(10 -1.335290746e-15 2.88216568e-15)
)
;

boundaryField
{
    left
    {
        type            dirichlet;
        value           uniform (4 0 0);
    }
    right
    {
        type            dirichlet;
        value           uniform (4 0 0);
    }
    sides
    {
        type            empty;
    }
}


// ************************************************************************* //
