/*--------------------------------*- C++ -*----------------------------------*\
| =========                 |                                                 |
| \\      /  F ield         | foam-extend: Open Source CFD                    |
|  \\    /   O peration     | Version:     4.1                                |
|   \\  /    A nd           | Web:         http://www.foam-extend.org         |
|    \\/     M anipulation  |                                                 |
\*---------------------------------------------------------------------------*/
FoamFile
{
    version     2.0;
    format      ascii;
    class       volScalarField;
    location    "25.5";
    object      Tvol;
}
// * * * * * * * * * * * * * * * * * * * * * * * * * * * * * * * * * * * * * //

dimensions      [0 0 0 0 1 0 0];

internalField   nonuniform List<scalar> 
100
(
4
4
4
4
4
4
4
4
4
4
4
4
4
4
4
4
4
4
4
4
4
4
4
4
4
4
4
4
4
4
4
4
4
4.000000003
4.000000028
4.000000228
4.000001662
4.000010734
4.000060739
4.000298534
4.001270291
4.004685532
4.015046645
4.04232263
4.104994217
4.231421091
4.456621513
4.812753911
5.315292222
5.951057928
6.67534504
7.421447618
8.119092992
8.713374171
9.176131026
9.506591812
9.723674204
9.855237487
9.929004293
9.967371703
9.985930559
9.994299988
9.997827146
9.999219436
9.999735336
9.999915164
9.999974251
9.999992588
9.999997973
9.999999473
9.999999869
9.999999969
9.999999993
9.999999998
10
10
10
10
10
10
10
10
10
10
10
10
10
10
10
10
10
10
10
10
10
10
10
10
10
10
)
;

boundaryField
{
    left
    {
        type            calculated;
        value           uniform 0;
    }
    right
    {
        type            calculated;
        value           uniform 0;
    }
    sides
    {
        type            empty;
    }
}


// ************************************************************************* //
