/*--------------------------------*- C++ -*----------------------------------*\
| =========                 |                                                 |
| \\      /  F ield         | foam-extend: Open Source CFD                    |
|  \\    /   O peration     | Version:     4.1                                |
|   \\  /    A nd           | Web:         http://www.foam-extend.org         |
|    \\/     M anipulation  |                                                 |
\*---------------------------------------------------------------------------*/
FoamFile
{
    version     2.0;
    format      ascii;
    class       cellScalarField;
    location    "0.4";
    object      T;
}
// * * * * * * * * * * * * * * * * * * * * * * * * * * * * * * * * * * * * * //

dimensions      [0 0 0 0 1 0 0];

internalField   nonuniform 10((5.70349205 2.429073923 0.24762276) (9.517542936 0.6907094098 -0.2790774977) (9.979671421 0.03067773477 -0.01270612714) (9.999314944 0.001039409873 -0.0004233384815) (9.999979254 3.111539648e-05 -1.222233415e-05) (9.999999412 8.611846712e-07 -3.19765013e-07) (9.999999984 2.241230778e-08 -7.63633052e-09) (10 5.504027501e-10 -1.629989046e-10) (10 1.266082856e-11 -2.874009548e-12) (10 2.638440651e-13 -2.388350211e-14));

boundaryField
{
    left
    {
        type            dirichlet;
        value           uniform (4 0 0);
    }
    right
    {
        type            dirichlet;
        value           uniform (4 0 0);
    }
    sides
    {
        type            empty;
    }
}


// ************************************************************************* //
