/*--------------------------------*- C++ -*----------------------------------*\
| =========                 |                                                 |
| \\      /  F ield         | foam-extend: Open Source CFD                    |
|  \\    /   O peration     | Version:     4.1                                |
|   \\  /    A nd           | Web:         http://www.foam-extend.org         |
|    \\/     M anipulation  |                                                 |
\*---------------------------------------------------------------------------*/
FoamFile
{
    version     2.0;
    format      ascii;
    class       cellScalarField;
    location    "5.6";
    object      T;
}
// * * * * * * * * * * * * * * * * * * * * * * * * * * * * * * * * * * * * * //

dimensions      [0 0 0 0 1 0 0];

internalField   nonuniform 10((4 9.274411163e-12 2.055249815e-12) (4 -4.479108326e-10 -2.533547644e-11) (4.000000009 1.949114195e-08 7.75065282e-09) (4.000000047 -1.066652494e-07 -2.165161027e-09) (4.000004241 7.844303038e-06 6.165861801e-06) (4.000097837 9.560352004e-05 3.626467033e-05) (4.00118435 0.001402273915 0.00112842908) (4.020885023 0.02472355955 0.01154383504) (4.179630366 0.1563217354 0.04029227131) (4.777050185 0.4598624516 0.05782813758));

boundaryField
{
    left
    {
        type            dirichlet;
        value           uniform (4 0 0);
    }
    right
    {
        type            dirichlet;
        value           uniform (4 0 0);
    }
    sides
    {
        type            empty;
    }
}


// ************************************************************************* //
