/*--------------------------------*- C++ -*----------------------------------*\
| =========                 |                                                 |
| \\      /  F ield         | foam-extend: Open Source CFD                    |
|  \\    /   O peration     | Version:     4.1                                |
|   \\  /    A nd           | Web:         http://www.foam-extend.org         |
|    \\/     M anipulation  |                                                 |
\*---------------------------------------------------------------------------*/
FoamFile
{
    version     2.0;
    format      ascii;
    class       cellScalarField;
    location    "42.6";
    object      T;
}
// * * * * * * * * * * * * * * * * * * * * * * * * * * * * * * * * * * * * * //

dimensions      [0 0 0 0 1 0 0];

internalField   nonuniform 
100
(
(4 -5.703630593e-17 1.624202108e-17)
(4 -2.372217609e-16 7.665950967e-19)
(4 -8.475550759e-17 2.263577985e-17)
(4 -2.292573621e-16 3.267698404e-16)
(4 3.490927408e-17 -6.955107468e-18)
(4 -4.563280442e-16 2.608296376e-16)
(4 3.639318949e-16 1.759214517e-17)
(4 -3.334776265e-16 9.127320392e-17)
(4 7.895814557e-16 1.235665439e-16)
(4 -1.250235536e-15 -1.064289942e-16)
(4 4.320814472e-16 -6.736742765e-17)
(4 -3.483037066e-16 1.7282967e-16)
(4 9.24376947e-16 -7.118980508e-17)
(4 -5.602441942e-16 2.809286068e-16)
(4 3.072879654e-16 -2.553776983e-17)
(4 -1.83373788e-17 -3.814846333e-17)
(4 -4.996603469e-17 9.555118681e-17)
(4 -1.797990925e-17 -8.144963871e-17)
(4 8.806744092e-17 -1.779158703e-16)
(4 1.753281899e-17 5.625176929e-17)
(4 1.252319541e-16 -5.724498885e-17)
(4 3.539461637e-17 -1.050085115e-17)
(4 1.510400862e-16 2.445635445e-16)
(4 -3.748047769e-16 -5.017267327e-17)
(4 7.093416927e-16 8.47773029e-17)
(4 -8.217464675e-16 -9.809376146e-17)
(4 7.488769603e-16 -2.893367106e-16)
(4 -2.923843648e-16 3.89515562e-16)
(4 -5.434086723e-16 -1.222733507e-16)
(4 4.203536065e-16 3.34652966e-17)
(4 -1.470177456e-16 -1.351962747e-16)
(4 6.580716093e-17 -1.13302634e-16)
(4 6.839928368e-18 1.872558574e-16)
(4 -5.173112954e-16 1.352285755e-16)
(4 2.448646194e-16 -8.18889e-18)
(4 -3.496564236e-16 1.132514233e-16)
(4 6.993024037e-16 1.597098754e-16)
(4 -9.665690337e-16 1.635691461e-16)
(4 5.637518502e-16 1.183930815e-16)
(4 2.379683894e-17 1.24694898e-16)
(4 -2.040375672e-16 1.043310969e-16)
(4 -6.824445402e-17 -1.097022181e-16)
(4 2.363262134e-18 1.867009588e-16)
(4 -8.86034369e-17 1.151994565e-16)
(4 -5.257972916e-16 -7.937221146e-17)
(4 8.680796454e-16 2.635509835e-17)
(4 -8.50200228e-16 3.19001144e-17)
(4 6.719838715e-16 -1.853617449e-16)
(4 -8.419257448e-16 4.373856308e-17)
(4 7.093148038e-17 -1.594338834e-16)
(4 5.147852802e-16 1.180135973e-16)
(4 -6.60114986e-16 1.161166957e-17)
(4 4.750453375e-16 -1.067932403e-16)
(4 -3.545688054e-16 1.790583865e-16)
(4 1.073940223e-15 2.993741868e-16)
(4 4.231363369e-15 1.67630876e-15)
(4 4.281534314e-14 1.997551754e-14)
(4 3.63387493e-13 1.551940471e-13)
(4 2.785164953e-12 1.152226916e-12)
(4 2.001900569e-11 7.937845996e-12)
(4 1.341448805e-10 5.080189064e-11)
(4.000000001 8.350346597e-10 3.007926649e-10)
(4.000000006 4.810788937e-09 1.640876051e-09)
(4.000000032 2.556117978e-08 8.217194734e-09)
(4.000000164 1.248851689e-07 3.766510097e-08)
(4.000000773 5.59828464e-07 1.577007926e-07)
(4.000003343 2.299536899e-06 6.024371032e-07)
(4.000013302 8.650914662e-06 2.099066442e-06)
(4.000048676 2.981501342e-05 6.672824123e-06)
(4.000163966 9.421724738e-05 1.936843339e-05)
(4.00050908 0.0002733441973 5.138518109e-05)
(4.001459325 0.0007292348893 0.0001247543755)
(4.00386996 0.001792183253 0.0002775012415)
(4.009514582 0.004065209294 0.0005661483821)
(4.021737138 0.008527450933 0.001060259198)
(4.046258257 0.01657467355 0.001823495523)
(4.091924314 0.02990915925 0.002879753358)
(4.171016266 0.05020221924 0.004171961439)
(4.298644737 0.07852427091 0.005531712292)
(4.490868379 0.1146631402 0.006682810508)
(4.761545793 0.1565783789 0.007294002378)
(5.118488866 0.2002853211 0.007074924693)
(5.559995411 0.2403641965 0.005883858903)
(6.073010887 0.2710573828 0.003801528321)
(6.633823948 0.2876508509 0.001133493413)
(7.211408728 0.2876743729 -0.001666700981)
(7.772607432 0.2714958834 -0.004125691901)
(8.287709353 0.2421174367 -0.005879512422)
(8.734905241 0.2042884713 -0.006756243918)
(9.102580627 0.163287211 -0.006788781709)
(9.389202993 0.1237853018 -0.006165506249)
(9.601300099 0.08910381695 -0.00514856294)
(9.750450254 0.06097057222 -0.003994059449)
(9.850231253 0.03970205908 -0.002898169997)
(9.913803071 0.02462822879 -0.001976703092)
(9.952414771 0.01456889567 -0.00127198903)
(9.974793929 0.008226732303 -0.0007745253942)
(9.987183629 0.004438723222 -0.0004473635281)
(9.993741779 0.002290502304 -0.0002456191955)
(9.997063832 0.001131480882 -0.0001284190652)
)
;

boundaryField
{
    left
    {
        type            dirichlet;
        value           uniform (4 0 0);
    }
    right
    {
        type            dirichlet;
        value           uniform (4 0 0);
    }
    sides
    {
        type            empty;
    }
}


// ************************************************************************* //
