/*--------------------------------*- C++ -*----------------------------------*\
| =========                 |                                                 |
| \\      /  F ield         | foam-extend: Open Source CFD                    |
|  \\    /   O peration     | Version:     4.1                                |
|   \\  /    A nd           | Web:         http://www.foam-extend.org         |
|    \\/     M anipulation  |                                                 |
\*---------------------------------------------------------------------------*/
FoamFile
{
    version     2.0;
    format      ascii;
    class       cellScalarField;
    location    "6";
    object      T;
}
// * * * * * * * * * * * * * * * * * * * * * * * * * * * * * * * * * * * * * //

dimensions      [0 0 0 0 1 0 0];

internalField   nonuniform 
100
(
(4 2.758126862e-13 1.053493698e-12)
(4 -5.492696527e-12 -5.301512101e-11)
(4 6.901254627e-10 2.220141774e-09)
(4.000000035 3.329446163e-08 -1.198428761e-08)
(4.000000217 2.964537536e-07 8.180559601e-07)
(4.00001852 2.526019372e-05 1.146362973e-05)
(4.000227792 0.0002151252401 0.0001422877039)
(4.003568322 0.004456524324 0.002800679011)
(4.04585127 0.0478439189 0.01760252543)
(4.290236406 0.219323341 0.04530860707)
(5.027070862 0.5268184451 0.05087069556)
(6.336984478 0.75378655 0.01099667529)
(7.828869317 0.698550253 -0.03468494275)
(8.985302022 0.445916025 -0.04522086592)
(9.625561112 0.2060782397 -0.02962229639)
(9.889401041 0.07195266465 -0.01285552654)
(9.973338687 0.01970323937 -0.004091644852)
(9.994642284 0.004372788764 -0.001014038367)
(9.999083695 0.0008092474411 -0.0002041760379)
(9.999864062 0.0001279682403 -3.450456004e-05)
(9.999982208 1.765235133e-05 -5.021845511e-06)
(9.999997915 2.161475854e-06 -6.426753943e-07)
(9.999999778 2.38402447e-07 -7.35571398e-08)
(9.999999978 2.39796744e-08 -7.635312708e-09)
(9.999999998 2.222670504e-09 -7.271666421e-10)
(10 1.915296578e-10 -6.416034568e-11)
(10 1.546225743e-11 -5.286780003e-12)
(10 1.178622584e-12 -4.110625331e-13)
(10 8.381801977e-14 -2.999419556e-14)
(10 4.612336497e-15 -1.807242022e-15)
(10 -1.478543938e-15 3.503168163e-16)
(10 3.725596187e-16 8.646173723e-16)
(10 -1.242801261e-15 -1.146447763e-16)
(10 1.473611488e-15 4.950641573e-16)
(10 -1.735475806e-15 7.451727362e-16)
(10 2.500556147e-16 -8.711904155e-17)
(10 -5.075158111e-16 1.8609364e-16)
(10 -8.857098705e-17 1.98248769e-16)
(10 -1.4638022e-16 -1.471867459e-17)
(10 -2.21006745e-16 8.609084312e-17)
(10 -7.141964569e-17 -1.792809061e-16)
(10 -2.18149827e-16 1.733893533e-16)
(10 -2.383414848e-16 -5.651674693e-19)
(10 -3.912639192e-16 2.532054482e-16)
(10 -2.534248666e-16 1.679524141e-16)
(10 -2.133285862e-17 -7.583924386e-17)
(10 2.115033789e-16 -8.346645278e-17)
(10 -6.780412433e-17 1.549269696e-16)
(10 -1.820882759e-16 -6.651414204e-17)
(10 -2.315712289e-16 1.288297339e-17)
(10 -3.604858442e-17 7.79750571e-16)
(10 -1.95902246e-16 2.966755624e-16)
(10 -4.527813795e-16 2.84229793e-16)
(10 8.517485772e-18 3.109506195e-17)
(10 -5.821685624e-17 2.011315598e-16)
(10 -1.57599631e-16 4.256786583e-17)
(10 -7.511947905e-17 -4.617334172e-16)
(10 2.315652255e-16 -3.373756552e-16)
(10 1.914212538e-16 -5.530711089e-16)
(10 -3.754423464e-17 -3.116279267e-16)
(10 4.619326547e-17 3.20197965e-16)
(10 -4.965320512e-17 -5.651813039e-18)
(10 3.232626165e-16 3.50258352e-16)
(10 -4.601928857e-16 -7.640301957e-17)
(10 2.618813494e-16 2.949202433e-17)
(10 -1.365865064e-16 -1.744219838e-17)
(10 2.188364463e-16 -5.564608176e-16)
(10 1.000862123e-15 -5.078880214e-16)
(10 -1.354184949e-16 7.67388769e-17)
(10 -4.236895985e-18 2.400961845e-18)
(10 -1.325615648e-19 7.511991338e-20)
(10 -4.147510002e-21 2.350308647e-21)
(10 -1.297649077e-22 7.353510527e-23)
(10 -4.060009803e-24 2.300724083e-24)
(10 -1.270272518e-25 7.198373197e-26)
(10 -3.974355601e-27 2.252185608e-27)
(10 -1.243473524e-28 7.046508807e-29)
(10 -3.890508449e-30 2.204671151e-30)
(10 -1.217239909e-31 6.897848307e-32)
(10 -3.808430225e-33 2.158159109e-33)
(10 -1.191559747e-34 6.752324105e-35)
(10 -3.728083609e-36 2.112628333e-36)
(10 -1.16642136e-37 6.609870033e-38)
(10 -3.649432069e-39 2.068058123e-39)
(10 -1.141813318e-40 6.470421321e-41)
(10 -3.572439844e-42 2.024428212e-42)
(10 -1.117724433e-43 6.333914564e-44)
(10 -3.497071927e-45 1.981718763e-45)
(10 -1.094143753e-46 6.200287697e-47)
(10 -3.42329405e-48 1.939910357e-48)
(10 -1.071060555e-49 6.069479961e-50)
(10 -3.351072669e-51 1.898983985e-51)
(10 -1.048464345e-52 5.941431881e-53)
(10 -3.280374945e-54 1.858921038e-54)
(10 -1.026344847e-55 5.816085238e-56)
(10 -3.211168734e-57 1.819703301e-57)
(10 -1.004692006e-58 5.693383038e-59)
(10 -3.143422569e-60 1.781312942e-60)
(10 -9.834959756e-62 5.573269491e-62)
(10 3.333333304e-16 3.221614426e-15)
)
;

boundaryField
{
    left
    {
        type            dirichlet;
        value           uniform (4 0 0);
    }
    right
    {
        type            dirichlet;
        value           uniform (4 0 0);
    }
    sides
    {
        type            empty;
    }
}


// ************************************************************************* //
