/*--------------------------------*- C++ -*----------------------------------*\
| =========                 |                                                 |
| \\      /  F ield         | foam-extend: Open Source CFD                    |
|  \\    /   O peration     | Version:     4.1                                |
|   \\  /    A nd           | Web:         http://www.foam-extend.org         |
|    \\/     M anipulation  |                                                 |
\*---------------------------------------------------------------------------*/
FoamFile
{
    version     2.0;
    format      ascii;
    class       cellScalarField;
    location    "4.9";
    object      T;
}
// * * * * * * * * * * * * * * * * * * * * * * * * * * * * * * * * * * * * * //

dimensions      [0 0 0 0 1 0 0];

internalField   nonuniform 10((4 -2.494447818e-10 -1.37704502e-10) (4.000000006 1.708902819e-08 1.076283579e-08) (4.000000043 -1.7843926e-07 -1.155351661e-07) (4.000004191 9.200105061e-06 8.579463525e-06) (4.000127422 0.0001204189065 3.2195836e-05) (4.00145713 0.001762740742 0.001656334103) (4.030849868 0.03782506899 0.01781232149) (4.269844723 0.2317532228 0.05524189551) (5.099542542 0.6092158183 0.06007638628) (6.600932469 0.8470190919 0.0007245166276));

boundaryField
{
    left
    {
        type            dirichlet;
        value           uniform (4 0 0);
    }
    right
    {
        type            dirichlet;
        value           uniform (4 0 0);
    }
    sides
    {
        type            empty;
    }
}


// ************************************************************************* //
