/*--------------------------------*- C++ -*----------------------------------*\
| =========                 |                                                 |
| \\      /  F ield         | foam-extend: Open Source CFD                    |
|  \\    /   O peration     | Version:     4.1                                |
|   \\  /    A nd           | Web:         http://www.foam-extend.org         |
|    \\/     M anipulation  |                                                 |
\*---------------------------------------------------------------------------*/
FoamFile
{
    version     2.0;
    format      ascii;
    class       cellScalarField;
    location    "1.8";
    object      T;
}
// * * * * * * * * * * * * * * * * * * * * * * * * * * * * * * * * * * * * * //

dimensions      [0 0 0 0 1 0 0];

internalField   nonuniform 
100
(
(4.00055388 4.01457758e-06 -0.0009038475896)
(4.0118469 0.02947295897 0.04537867996)
(4.614757686 0.7136228695 0.1808492998)
(6.880587219 1.37770156 -0.04789829315)
(9.064607046 0.7081651152 -0.1308440132)
(9.845851283 0.150584476 -0.04015039365)
(9.983274066 0.01865380094 -0.005820193328)
(9.998621726 0.00166552925 -0.0005674685029)
(9.999906082 0.0001197967272 -4.32121622e-05)
(9.999994426 7.394654723e-06 -2.77752663e-06)
(9.999999702 4.073299227e-07 -1.577412748e-07)
(9.999999985 2.054593207e-08 -8.150180924e-09)
(9.999999999 9.661088563e-10 -3.908039706e-10)
(10 4.289783205e-11 -1.763729564e-11)
(10 1.815358576e-12 -7.576517535e-13)
(10 7.197103089e-14 -3.035234703e-14)
(10 4.320865292e-15 -2.041000634e-15)
(10 7.801448771e-16 6.430508115e-16)
(10 -2.109624214e-15 4.097164983e-16)
(10 9.088122261e-16 -4.893332464e-16)
(10 2.068515854e-16 3.591580101e-16)
(10 -4.246444581e-16 -8.911081835e-17)
(10 2.592750733e-16 3.137292448e-17)
(10 -1.368879673e-16 -1.726681932e-17)
(10 2.188237973e-16 -5.564542902e-16)
(10 1.00086202e-15 -5.078880217e-16)
(10 -1.35418469e-16 7.673885899e-17)
(10 -4.236893528e-18 2.400960314e-18)
(10 -1.325614159e-19 7.511982385e-20)
(10 -4.147502678e-21 2.350304326e-21)
(10 -1.297645901e-22 7.353491959e-23)
(10 -4.05999694e-24 2.30071656e-24)
(10 -1.27026733e-25 7.198342562e-26)
(10 -3.974333314e-27 2.252172239e-27)
(10 -1.243462925e-28 7.046444366e-29)
(10 -3.89045364e-30 2.204637645e-30)
(10 -1.217210566e-31 6.897669228e-32)
(10 -3.808274194e-33 2.158064399e-33)
(10 -1.191479175e-34 6.751838301e-35)
(10 -3.727683248e-36 2.112388576e-36)
(10 -1.166230423e-37 6.608734085e-38)
(10 -3.648558334e-39 2.067541582e-39)
(10 -1.141429711e-40 6.468167596e-41)
(10 -3.570825797e-42 2.023486039e-42)
(10 -1.117075689e-43 6.330154367e-44)
(10 -3.494597877e-45 1.980296845e-45)
(10 -1.093260569e-46 6.195268624e-47)
(10 -3.420425611e-48 1.938308773e-48)
(10 -1.070271544e-49 6.065231895e-50)
(10 -3.349688653e-51 1.898341515e-51)
(10 -1.048734528e-52 5.943738536e-53)
(10 -3.285103531e-54 1.861990108e-54)
(10 -1.029786205e-55 5.837433646e-56)
(10 -3.231279023e-57 1.831938715e-57)
(10 -1.015243636e-58 5.756864498e-59)
(10 -3.195198841e-60 1.812228822e-60)
(10 -1.007728264e-61 5.717159119e-62)
(10 -3.186486288e-63 1.808399424e-63)
(10 -1.010698388e-64 5.738173454e-65)
(10 -3.217315375e-66 1.827423538e-66)
(10 -1.028353323e-67 5.843903805e-68)
(10 -3.30187978e-69 1.87739288e-69)
(10 -1.065392214e-70 6.061075574e-71)
(10 -3.455405556e-72 1.966945305e-72)
(10 -1.126636474e-73 6.416967459e-74)
(10 -3.692778731e-75 2.104477813e-75)
(10 -1.216551167e-76 6.936678245e-77)
(10 -4.026935497e-78 2.297230684e-78)
(10 -1.338721425e-79 7.640158592e-80)
(10 -4.467214301e-81 2.550356585e-81)
(10 -1.49535108e-82 8.539389463e-83)
(10 -5.017886059e-84 2.866096936e-84)
(10 -1.686850169e-85 9.636082677e-86)
(10 -5.677059274e-87 3.243175859e-87)
(10 -1.911566671e-88 1.09202121e-88)
(10 -6.436106886e-90 3.676492948e-90)
(10 -2.165698397e-91 1.236957223e-91)
(10 -7.279691832e-93 4.157156212e-93)
(10 -2.44339727e-94 1.395042623e-94)
(10 -8.18639172e-96 4.672853208e-96)
(10 -2.737054458e-97 1.56191715e-97)
(10 -9.129851962e-99 5.208518433e-99)
(10 -3.037734446e-100 1.732483684e-100)
(10 -1.008034095e-101 5.747224071e-102)
(10 -3.335711693e-103 1.901214557e-103)
(10 -1.100654618e-104 6.271202174e-105)
(10 -3.62105616e-106 2.06248392e-106)
(10 -1.187743834e-107 6.762900329e-108)
(10 -3.884213725e-109 2.210895702e-109)
(10 -1.266403976e-110 7.205978624e-111)
(10 -4.116533264e-112 2.341580067e-112)
(10 -1.334095931e-113 7.586170839e-114)
(10 -4.310702363e-115 2.450437188e-115)
(10 -1.388759314e-116 7.891953928e-117)
(10 -4.46106633e-118 2.534314345e-118)
(10 -1.428893209e-119 8.114993598e-120)
(10 -4.563818482e-121 2.591109955e-121)
(10 -1.453595824e-122 8.250357141e-123)
(10 -4.61706218e-124 2.619805084e-124)
(10 -8.458169795e-16 3.0244004e-15)
)
;

boundaryField
{
    left
    {
        type            dirichlet;
        value           uniform (4 0 0);
    }
    right
    {
        type            dirichlet;
        value           uniform (4 0 0);
    }
    sides
    {
        type            empty;
    }
}


// ************************************************************************* //
