/*--------------------------------*- C++ -*----------------------------------*\
| =========                 |                                                 |
| \\      /  F ield         | foam-extend: Open Source CFD                    |
|  \\    /   O peration     | Version:     4.1                                |
|   \\  /    A nd           | Web:         http://www.foam-extend.org         |
|    \\/     M anipulation  |                                                 |
\*---------------------------------------------------------------------------*/
FoamFile
{
    version     2.0;
    format      ascii;
    class       cellScalarField;
    location    "12";
    object      T;
}
// * * * * * * * * * * * * * * * * * * * * * * * * * * * * * * * * * * * * * //

dimensions      [0 0 0 0 1 0 0];

internalField   nonuniform 
100
(
(4 -5.703630593e-17 1.624202108e-17)
(4 -9.763287585e-17 -6.144890961e-17)
(4 1.694797748e-16 -8.830456199e-17)
(4 1.603954631e-18 -3.193696144e-17)
(4 -5.284545001e-17 7.239376441e-17)
(4 -3.066541866e-16 6.58092837e-17)
(4 1.294350132e-16 -1.036152944e-17)
(4 -2.06160876e-15 2.331507545e-15)
(4 2.534606791e-13 1.586401524e-13)
(4 2.646183282e-12 1.547603581e-12)
(4 8.372704638e-11 6.688563241e-11)
(4.000000001 1.69656255e-09 9.413761853e-10)
(4.000000022 2.501059242e-08 1.617078882e-08)
(4.000000356 4.149943665e-07 2.387748803e-07)
(4.000004701 5.078430318e-06 2.60354553e-06)
(4.000051366 5.364302481e-05 2.677231954e-05)
(4.000500685 0.0005044688323 0.000220834771)
(4.003917889 0.00355521122 0.001241708592)
(4.022629366 0.01753056279 0.004674734901)
(4.095903141 0.06127871635 0.01205405188)
(4.30615344 0.1568048147 0.02163018126)
(4.76097082 0.3030292484 0.02665531194)
(5.521997004 0.4541910806 0.02035671387)
(6.528844032 0.539902201 0.003831028928)
(7.602048827 0.5187393408 -0.01360646481)
(8.538811179 0.4095234564 -0.02289392711)
(9.218096544 0.269536131 -0.02223293448)
(9.632638659 0.1498462332 -0.01594484071)
(9.848067497 0.07121146396 -0.009115998648)
(9.944447368 0.02924869735 -0.004316553928)
(9.981945718 0.01048926477 -0.001734361071)
(9.994753868 0.003315778618 -0.0006018435785)
(9.998628671 0.0009321030156 -0.0001829186279)
(9.999675546 0.000234935872 -4.926623915e-05)
(9.999930099 5.350043045e-05 -1.187803441e-05)
(9.999986207 1.108564976e-05 -2.586426568e-06)
(9.999997494 2.103796277e-06 -5.126821603e-07)
(9.999999578 3.678821804e-07 -9.316790221e-08)
(9.999999934 5.960655183e-08 -1.562168679e-08)
(9.99999999 8.994640308e-09 -2.430753093e-09)
(9.999999999 1.270058031e-09 -3.528406456e-10)
(10 1.685365201e-10 -4.800710359e-11)
(10 2.110253218e-11 -6.149234641e-12)
(10 2.503535053e-12 -7.448187887e-13)
(10 2.813059776e-13 -8.580213674e-14)
(10 2.975015357e-14 -1.044750385e-14)
(10 -1.592105547e-15 2.142496019e-16)
(10 3.763726534e-16 1.784711882e-16)
(10 -3.265848312e-16 -8.393447656e-17)
(10 2.422103836e-17 2.160375401e-16)
(10 3.268135395e-16 -1.903685348e-16)
(10 -3.102959007e-16 3.237661224e-16)
(10 -3.194246922e-16 2.780780515e-16)
(10 1.220314289e-17 -4.165451104e-16)
(10 -4.407115333e-16 2.207873305e-16)
(10 3.060301757e-16 -3.652735278e-16)
(10 -5.917454996e-17 -6.523940645e-17)
(10 -9.110202379e-17 -2.467621536e-16)
(10 4.423960287e-18 1.317359247e-16)
(10 4.046435547e-16 -3.323488051e-16)
(10 1.419931252e-16 2.552598462e-16)
(10 -1.617359829e-16 2.338196603e-16)
(10 2.233389995e-16 6.464269687e-16)
(10 -5.415192606e-17 -4.382129426e-16)
(10 5.315032844e-17 -5.79763542e-17)
(10 -7.995799034e-17 -4.411803977e-16)
(10 -1.300066654e-17 -2.305135725e-17)
(10 -5.135127758e-17 -8.07753148e-18)
(10 1.778901406e-16 -2.577385291e-16)
(10 2.660065653e-16 -1.191521947e-16)
(10 2.008565698e-16 8.108651889e-16)
(10 -6.949637935e-17 -9.590414568e-17)
(10 -4.607938517e-17 4.656045259e-16)
(10 4.848818312e-17 8.287079535e-17)
(10 -1.773953767e-17 5.901005473e-16)
(10 -9.295583898e-17 3.243542564e-16)
(10 -3.779675964e-16 3.956090337e-16)
(10 -8.775441191e-17 2.35693608e-16)
(10 -4.136405077e-16 -5.439793849e-17)
(10 4.290156383e-16 -2.934777395e-16)
(10 -1.399414575e-16 -2.439736581e-16)
(10 2.66770523e-16 -2.115709084e-16)
(10 9.888513102e-17 -2.355880544e-16)
(10 2.018686497e-16 -9.734409365e-17)
(10 3.155125969e-16 -1.955369182e-16)
(10 1.655930784e-16 -2.756494097e-17)
(10 6.61189327e-17 3.324983564e-16)
(10 -4.684422863e-17 4.057719649e-16)
(10 1.661385187e-16 -3.989103245e-17)
(10 -3.04635896e-16 -2.973510608e-16)
(10 5.972356875e-16 1.752577286e-16)
(10 1.036568255e-16 1.548795052e-16)
(10 2.740063717e-16 -1.912526319e-16)
(10 -4.549498889e-16 -4.211898558e-16)
(10 1.985065802e-16 7.936791381e-17)
(10 2.176563312e-16 1.941894147e-16)
(10 1.91405652e-16 1.564400457e-16)
(10 3.967264171e-16 -6.142899072e-16)
(10 -7.892284441e-17 6.213081096e-16)
(10 -1.270058795e-15 3.344326909e-15)
)
;

boundaryField
{
    left
    {
        type            dirichlet;
        value           uniform (4 0 0);
    }
    right
    {
        type            dirichlet;
        value           uniform (4 0 0);
    }
    sides
    {
        type            empty;
    }
}


// ************************************************************************* //
