/*--------------------------------*- C++ -*----------------------------------*\
| =========                 |                                                 |
| \\      /  F ield         | foam-extend: Open Source CFD                    |
|  \\    /   O peration     | Version:     4.1                                |
|   \\  /    A nd           | Web:         http://www.foam-extend.org         |
|    \\/     M anipulation  |                                                 |
\*---------------------------------------------------------------------------*/
FoamFile
{
    version     2.0;
    format      ascii;
    class       cellScalarField;
    location    "27";
    object      T;
}
// * * * * * * * * * * * * * * * * * * * * * * * * * * * * * * * * * * * * * //

dimensions      [0 0 0 0 1 0 0];

internalField   nonuniform 
100
(
(4 -5.703630593e-17 1.624202108e-17)
(4 1.319291824e-17 9.53872323e-17)
(4 3.871186028e-17 -9.444468732e-17)
(4 2.676967643e-17 -1.339082569e-16)
(4 -6.002900926e-17 -7.828935769e-17)
(4 -3.578893656e-16 1.250720569e-17)
(4 4.713743112e-16 4.645616514e-17)
(4 -4.70957687e-16 2.354675175e-16)
(4 8.322875362e-16 1.51349907e-17)
(4 -1.357082121e-15 -3.484897321e-16)
(4 4.917739829e-16 -9.983068477e-18)
(4 -1.991880639e-16 -1.1421289e-17)
(4 8.099122591e-16 -1.227597211e-16)
(4 6.556036941e-16 3.04559855e-18)
(4 -7.021887072e-16 9.11869907e-17)
(4 9.057403174e-16 7.281612458e-17)
(4 -1.086030823e-15 7.255879613e-17)
(4 8.895590663e-16 -7.252013067e-17)
(4 -9.557339256e-16 3.549157342e-16)
(4 9.153533546e-16 -5.747785362e-17)
(4 -6.35977271e-16 1.358832526e-16)
(4 1.863098987e-16 -1.489888722e-16)
(4 -3.012944899e-16 -2.598234712e-17)
(4 1.10305614e-16 1.459691312e-16)
(4 -8.912996796e-17 2.512936717e-16)
(4 -1.288639324e-16 -1.134055218e-16)
(4 3.009119299e-17 -5.829177788e-17)
(4 -4.955295263e-17 1.036043022e-16)
(4 -3.056560283e-16 -7.313071356e-17)
(4 3.353628431e-16 1.942879017e-16)
(4 9.640764536e-15 5.655765638e-15)
(4 1.232752049e-13 6.573876348e-14)
(4 1.424885118e-12 7.410325798e-13)
(4 1.549554591e-11 7.753295844e-12)
(4 1.557094896e-10 7.465508699e-11)
(4.000000001 1.437099009e-09 6.561924138e-10)
(4.000000013 1.209390502e-08 5.226674167e-09)
(4.000000099 9.21477009e-08 3.740329792e-08)
(4.000000705 6.297197602e-07 2.374958866e-07)
(4.0000045 3.813666402e-06 1.31942523e-06)
(4.000025426 2.023843739e-05 6.342730093e-06)
(4.000126241 9.341302522e-05 2.622241266e-05)
(4.00054888 0.0003739130088 9.307991826e-05)
(4.002089949 0.001298981444 0.0002840392087)
(4.006988372 0.003928974386 0.0007471549617)
(4.020613127 0.01039302427 0.001699195996)
(4.053928119 0.02416487036 0.003348891588)
(4.125892383 0.0496432951 0.005724985291)
(4.263895312 0.09056918162 0.008474645686)
(4.499951553 0.1474547342 0.01079308091)
(4.861745711 0.2152253267 0.0116374199)
(5.360721682 0.2828530271 0.0102057228)
(5.982466885 0.3360623704 0.006427313777)
(6.685049656 0.36234287 0.0011278817)
(7.40761137 0.3558028775 -0.004282368208)
(8.086183946 0.3192625266 -0.00842535069)
(8.669942273 0.2626110903 -0.01050747134)
(9.131350087 0.1986141484 -0.01051754476)
(9.467387013 0.1385095574 -0.009040204161)
(9.693495269 0.08931077379 -0.006876376017)
(9.83442353 0.05338411327 -0.004706955959)
(9.915989613 0.0296541944 -0.002930887184)
(9.959932184 0.01534491579 -0.001672861985)
(9.982018372 0.007413881114 -0.0008803659416)
(9.992397818 0.003351899508 -0.0004291990002)
(9.99696839 0.001421110284 -0.0001946125242)
(9.998858135 0.0005661752808 -8.235601507e-05)
(9.999593217 0.0002123854743 -3.262577947e-05)
(9.999862744 7.515969585e-05 -1.213301814e-05)
(9.999956073 2.513850026e-05 -4.246395499e-06)
(9.999986647 7.961027844e-06 -1.401960724e-06)
(9.999996139 2.391277645e-06 -4.375903939e-07)
(9.999998937 6.824216585e-07 -1.293932218e-07)
(9.999999721 1.853293983e-07 -3.631721052e-08)
(9.99999993 4.797201884e-08 -9.693307593e-09)
(9.999999983 1.185343443e-08 -2.464629361e-09)
(9.999999996 2.799960541e-09 -5.979687198e-10)
(9.999999999 6.331734093e-10 -1.386559667e-10)
(10 1.372660582e-10 -3.077434478e-11)
(10 2.856956206e-11 -6.549724062e-12)
(10 5.710305379e-12 -1.337796203e-12)
(10 1.094684824e-12 -2.620569985e-13)
(10 2.028356209e-13 -4.796825453e-14)
(10 4.012909669e-14 -1.015451126e-14)
(10 7.394881445e-15 -1.103187694e-15)
(10 -3.634989315e-16 -8.261705273e-16)
(10 1.318202462e-15 -1.971743871e-16)
(10 -7.215340337e-16 3.696558053e-16)
(10 1.309718065e-16 -1.435360428e-16)
(10 -1.030033873e-16 -5.930797802e-16)
(10 3.110398238e-16 -3.288928279e-16)
(10 -3.197753057e-16 -4.937322732e-16)
(10 5.082995049e-17 -4.510200845e-17)
(10 -2.389636707e-16 -1.807450685e-16)
(10 1.91071458e-16 1.269179006e-16)
(10 -3.465498565e-16 2.608854301e-16)
(10 -4.697005464e-16 5.279158799e-16)
(10 -2.758349561e-16 -3.645851209e-16)
(10 2.134905019e-16 -2.292435852e-16)
(10 -9.610188227e-16 3.232726896e-15)
)
;

boundaryField
{
    left
    {
        type            dirichlet;
        value           uniform (4 0 0);
    }
    right
    {
        type            dirichlet;
        value           uniform (4 0 0);
    }
    sides
    {
        type            empty;
    }
}


// ************************************************************************* //
