/*--------------------------------*- C++ -*----------------------------------*\
| =========                 |                                                 |
| \\      /  F ield         | foam-extend: Open Source CFD                    |
|  \\    /   O peration     | Version:     4.1                                |
|   \\  /    A nd           | Web:         http://www.foam-extend.org         |
|    \\/     M anipulation  |                                                 |
\*---------------------------------------------------------------------------*/
FoamFile
{
    version     2.0;
    format      ascii;
    class       cellScalarField;
    location    "33.3";
    object      T;
}
// * * * * * * * * * * * * * * * * * * * * * * * * * * * * * * * * * * * * * //

dimensions      [0 0 0 0 1 0 0];

internalField   nonuniform 
100
(
(4 -5.703630593e-17 1.624202108e-17)
(4 -6.904540499e-17 -9.24949682e-17)
(4 -2.142383724e-17 5.333817913e-17)
(4 -6.251068104e-17 1.070212566e-16)
(4 -1.521935543e-16 1.812993591e-17)
(4 -4.214204946e-16 2.102199412e-16)
(4 3.738887468e-16 6.155173601e-18)
(4 -3.891259332e-16 -5.062459284e-17)
(4 7.560403987e-16 2.125982263e-17)
(4 -1.421198735e-15 -5.732350365e-17)
(4 4.354613954e-16 -1.393365714e-16)
(4 -4.213680214e-16 1.677647017e-17)
(4 1.199814851e-15 -3.309423958e-16)
(4 -5.27175366e-16 -3.744718357e-16)
(4 5.522232006e-16 -1.783264632e-16)
(4 -5.631220813e-16 3.611178805e-16)
(4 1.025680404e-16 -1.565218677e-16)
(4 1.470007357e-17 -9.708514656e-17)
(4 4.668514556e-18 -6.90588305e-17)
(4 -3.224495446e-16 -1.649710756e-16)
(4 9.64994541e-16 -9.921469999e-17)
(4 -8.851847267e-16 1.111373316e-16)
(4 6.575849314e-16 -8.743500975e-17)
(4 -5.104994876e-16 1.204513196e-16)
(4 -2.944407866e-17 1.318290477e-16)
(4 -3.409431909e-17 -2.689150379e-17)
(4 -1.109894514e-17 4.644167845e-17)
(4 4.702343771e-17 -5.148505957e-17)
(4 -4.36466048e-16 5.251371284e-17)
(4 3.413283012e-16 3.757353604e-17)
(4 3.326928436e-17 1.550101223e-16)
(4 6.723578305e-18 -2.685405741e-16)
(4 -2.11427767e-16 3.8652152e-17)
(4 -4.392305741e-16 1.295265929e-16)
(4 7.462025162e-16 -7.23742827e-17)
(4 -1.028932884e-15 -1.013232175e-16)
(4 7.0137166e-16 -1.750709331e-16)
(4 -6.159609928e-16 1.016790941e-16)
(4 4.298975954e-16 -2.586958363e-17)
(4 -3.370029787e-17 4.612502949e-17)
(4 6.681483701e-15 4.314143248e-15)
(4 8.197985997e-14 4.090097553e-14)
(4 8.167283231e-13 3.900211124e-13)
(4 7.552688062e-12 3.473190544e-12)
(4 6.49851841e-11 2.86319818e-11)
(4.000000001 5.170752056e-10 2.172244392e-10)
(4.000000004 3.784152832e-09 1.507340901e-09)
(4.000000029 2.531594507e-08 9.497998592e-09)
(4.000000181 1.537700068e-07 5.392601093e-08)
(4.000001043 8.42334031e-07 2.739286512e-07)
(4.000005419 4.138485363e-06 1.238409047e-06)
(4.00002532 1.81718854e-05 4.967828782e-06)
(4.00010627 7.120686422e-05 1.766509086e-05)
(4.000400647 0.0002490814128 5.571054218e-05)
(4.001358749 0.0007790435221 0.0001560493222)
(4.004155478 0.002184036351 0.000388962515)
(4.011496985 0.005504662599 0.000864377479)
(4.02888 0.0125134399 0.001715281727)
(4.066122526 0.02574153969 0.00304225016)
(4.13855022 0.04807608744 0.00482150055)
(4.266805234 0.0817799694 0.006813937011)
(4.474228589 0.1270929425 0.008542149546)
(4.781492293 0.1809782757 0.009392790857)
(5.199549093 0.236796102 0.008838787243)
(5.72335809 0.2854422114 0.006690088753)
(6.329273935 0.3177989814 0.003236641103)
(6.977892146 0.3275810793 -0.0008113306318)
(7.621898814 0.3133347876 -0.004570319701)
(8.216269861 0.278719575 -0.007296712881)
(8.727234604 0.231046166 -0.00861555215)
(9.137204394 0.1788410633 -0.008574579007)
(9.444790606 0.1295096809 -0.00753409364)
(9.660977873 0.08790236965 -0.00597735015)
(9.803573455 0.05601821631 -0.004338340802)
(9.891989654 0.03357590853 -0.002905332458)
(9.943609801 0.01895876636 -0.001806275127)
(9.972031932 0.01010105056 -0.001047410779)
(9.986813161 0.005085872977 -0.0005686228094)
(9.994084713 0.002423564893 -0.000289911757)
(9.997473414 0.001094617134 -0.0001391915486)
(9.998971504 0.0004692434165 -6.308097013e-05)
(9.999600622 0.0001911855108 -2.704274639e-05)
(9.999851922 7.413246979e-05 -1.098796464e-05)
(9.999947527 2.739167682e-05 -4.239159436e-06)
(9.999982211 9.656729729e-06 -1.555489261e-06)
(9.999994225 3.252166236e-06 -5.437048601e-07)
(9.999998203 1.047519735e-06 -1.813069725e-07)
(9.999999463 3.230727033e-07 -5.776091995e-08)
(9.999999846 9.551579015e-08 -1.760379067e-08)
(9.999999958 2.709955304e-08 -5.139122211e-09)
(9.999999989 7.386236346e-09 -1.438856157e-09)
(9.999999997 1.936014161e-09 -3.868152488e-10)
(9.999999999 4.884927757e-10 -9.996320393e-11)
(10 1.187657304e-10 -2.486091243e-11)
(10 2.784932441e-11 -5.956864831e-12)
(10 6.304344169e-12 -1.375066536e-12)
(10 1.379324188e-12 -3.084395054e-13)
(10 2.850825297e-13 -6.618168746e-14)
(10 6.034610528e-14 -1.14887126e-14)
(10 1.562327065e-14 1.867275947e-15)
)
;

boundaryField
{
    left
    {
        type            dirichlet;
        value           uniform (4 0 0);
    }
    right
    {
        type            dirichlet;
        value           uniform (4 0 0);
    }
    sides
    {
        type            empty;
    }
}


// ************************************************************************* //
