/*--------------------------------*- C++ -*----------------------------------*\
| =========                 |                                                 |
| \\      /  F ield         | foam-extend: Open Source CFD                    |
|  \\    /   O peration     | Version:     4.1                                |
|   \\  /    A nd           | Web:         http://www.foam-extend.org         |
|    \\/     M anipulation  |                                                 |
\*---------------------------------------------------------------------------*/
FoamFile
{
    version     2.0;
    format      ascii;
    class       cellScalarField;
    location    "8";
    object      T;
}
// * * * * * * * * * * * * * * * * * * * * * * * * * * * * * * * * * * * * * //

dimensions      [0 0 0 0 1 0 0];

internalField   nonuniform 
100
(
(4 -5.703630593e-17 1.624202108e-17)
(4 4.653607619e-15 -4.171582712e-16)
(4 -1.446892781e-13 3.141991908e-14)
(4 5.675703985e-12 1.028595569e-12)
(4 -5.78350983e-11 7.815088552e-12)
(4.000000001 2.831459729e-09 1.776243782e-09)
(4.000000028 2.155310022e-08 1.059445504e-08)
(4.000000549 7.708144324e-07 6.537915275e-07)
(4.000012684 1.479548649e-05 7.288430979e-06)
(4.000154878 0.0001636231615 9.750213475e-05)
(4.001992713 0.002248686614 0.001177665102)
(4.019922148 0.01950201605 0.007034420632)
(4.121408206 0.09322535828 0.02197821175)
(4.468780408 0.2684314301 0.03825950997)
(5.241426829 0.5046322512 0.03520525578)
(6.424370288 0.6570922075 0.007087725184)
(7.727399244 0.6197286146 -0.02370967916)
(8.797166983 0.4387749849 -0.03498390987)
(9.47139877 0.2403421899 -0.02768301246)
(9.806129207 0.1045661101 -0.01523546405)
(9.940084066 0.03699357303 -0.006366992589)
(9.984210465 0.0108701573 -0.002120313051)
(9.996406717 0.002704113573 -0.0005815941176)
(9.999284885 0.0005793769557 -0.0001347723651)
(9.999874038 0.000108572176 -2.693142037e-05)
(9.999980142 1.803954046e-05 -4.720950549e-06)
(9.99999717 2.689817957e-06 -7.365565401e-07)
(9.999999632 3.637713316e-07 -1.03554246e-07)
(9.999999956 4.50405536e-08 -1.325988662e-08)
(9.999999995 5.147773893e-09 -1.560695539e-09)
(9.999999999 5.470359119e-10 -1.702048932e-10)
(10 5.439825787e-11 -1.73201592e-11)
(10 5.088433054e-12 -1.654440472e-12)
(10 4.5252252e-13 -1.494577891e-13)
(10 3.843282668e-14 -1.433179447e-14)
(10 4.431863564e-16 -9.984430181e-16)
(10 1.840544716e-16 1.516867039e-16)
(10 3.739647034e-16 -1.649911302e-16)
(10 -1.150361567e-16 8.103102572e-17)
(10 1.871276739e-16 8.468044535e-17)
(10 -4.238133362e-16 -1.172179612e-16)
(10 -1.050158711e-16 -1.162333773e-16)
(10 1.489067895e-17 -4.045515949e-16)
(10 -4.174280156e-16 4.149033153e-16)
(10 -1.136355022e-15 -4.60674044e-16)
(10 1.922670406e-15 -3.753158123e-16)
(10 -1.907710371e-15 2.518465594e-16)
(10 9.220640412e-16 -1.033972283e-15)
(10 -3.867793627e-16 1.582247499e-16)
(10 -9.912586901e-17 2.773269335e-17)
(10 -4.246466756e-16 3.864137374e-16)
(10 -1.861013445e-16 -3.535889366e-16)
(10 1.206705991e-15 -9.792186781e-16)
(10 -2.049181226e-16 -2.824815688e-17)
(10 3.530891979e-16 4.968375863e-16)
(10 -3.354237119e-18 3.131022772e-16)
(10 1.880379668e-16 1.583815206e-16)
(10 3.966159753e-16 -6.142139795e-16)
(10 -7.893334075e-17 6.213144351e-16)
(10 -2.585804094e-16 2.639406134e-16)
(10 3.099361938e-16 2.205613719e-16)
(10 -2.253598199e-16 -2.271492781e-16)
(10 -5.845415604e-17 1.26938915e-16)
(10 -4.11328931e-16 3.103697465e-16)
(10 -2.804513886e-16 1.823053899e-16)
(10 -2.177170224e-17 -7.571648837e-17)
(10 2.115558615e-16 -8.349992142e-17)
(10 -6.780030099e-17 1.549248937e-16)
(10 -1.820881838e-16 -6.651417344e-17)
(10 -2.315712357e-16 1.288297897e-17)
(10 -3.604858548e-17 7.797505717e-16)
(10 -1.959022461e-16 2.966755624e-16)
(10 -4.527813795e-16 2.84229793e-16)
(10 8.517485773e-18 3.109506195e-17)
(10 -5.821685624e-17 2.011315598e-16)
(10 -1.57599631e-16 4.256786583e-17)
(10 -7.511947905e-17 -4.617334172e-16)
(10 2.315652255e-16 -3.373756552e-16)
(10 1.914212538e-16 -5.530711089e-16)
(10 -3.754423464e-17 -3.116279267e-16)
(10 4.619326547e-17 3.20197965e-16)
(10 -4.965320512e-17 -5.651813039e-18)
(10 3.232626165e-16 3.50258352e-16)
(10 -4.601928857e-16 -7.640301957e-17)
(10 2.618813494e-16 2.949202433e-17)
(10 -1.365865064e-16 -1.744219838e-17)
(10 2.188364463e-16 -5.564608176e-16)
(10 1.000862123e-15 -5.078880214e-16)
(10 -1.354184949e-16 7.67388769e-17)
(10 -4.236895985e-18 2.400961845e-18)
(10 -1.325615648e-19 7.511991338e-20)
(10 -4.147510002e-21 2.350308647e-21)
(10 -1.297649077e-22 7.353510527e-23)
(10 -4.060009803e-24 2.300724083e-24)
(10 -1.270272518e-25 7.198373197e-26)
(10 -3.974355601e-27 2.252185608e-27)
(10 -1.243473524e-28 7.046508807e-29)
(10 -3.890508449e-30 2.204671151e-30)
(10 -1.217239909e-31 6.897848307e-32)
(10 -7.868520835e-16 3.726832995e-15)
)
;

boundaryField
{
    left
    {
        type            dirichlet;
        value           uniform (4 0 0);
    }
    right
    {
        type            dirichlet;
        value           uniform (4 0 0);
    }
    sides
    {
        type            empty;
    }
}


// ************************************************************************* //
