/*--------------------------------*- C++ -*----------------------------------*\
| =========                 |                                                 |
| \\      /  F ield         | foam-extend: Open Source CFD                    |
|  \\    /   O peration     | Version:     4.1                                |
|   \\  /    A nd           | Web:         http://www.foam-extend.org         |
|    \\/     M anipulation  |                                                 |
\*---------------------------------------------------------------------------*/
FoamFile
{
    version     2.0;
    format      ascii;
    class       cellScalarField;
    location    "5.1";
    object      T;
}
// * * * * * * * * * * * * * * * * * * * * * * * * * * * * * * * * * * * * * //

dimensions      [0 0 0 0 1 0 0];

internalField   nonuniform 10((4 -3.757266872e-11 -8.349408428e-11) (4 3.421944891e-09 5.615634609e-09) (4.000000066 1.554455856e-08 -7.44115873e-08) (4.000000676 1.757486818e-06 3.30885713e-06) (4.000059052 7.102734524e-05 2.142147582e-05) (4.000600888 0.0005871085088 0.0005558804613) (4.01256751 0.01629634665 0.009234136061) (4.141044971 0.1354368927 0.04010699173) (4.706243492 0.4540805932 0.06392671526) (5.965331493 0.7809868749 0.0272272252));

boundaryField
{
    left
    {
        type            dirichlet;
        value           uniform (4 0 0);
    }
    right
    {
        type            dirichlet;
        value           uniform (4 0 0);
    }
    sides
    {
        type            empty;
    }
}


// ************************************************************************* //
