/*--------------------------------*- C++ -*----------------------------------*\
| =========                 |                                                 |
| \\      /  F ield         | foam-extend: Open Source CFD                    |
|  \\    /   O peration     | Version:     4.1                                |
|   \\  /    A nd           | Web:         http://www.foam-extend.org         |
|    \\/     M anipulation  |                                                 |
\*---------------------------------------------------------------------------*/
FoamFile
{
    version     2.0;
    format      ascii;
    class       cellScalarField;
    location    "2.5";
    object      T;
}
// * * * * * * * * * * * * * * * * * * * * * * * * * * * * * * * * * * * * * //

dimensions      [0 0 0 0 1 0 0];

internalField   nonuniform 10((4.000017102 5.129593188e-05 5.029408325e-05) (4.000497675 -0.0001409041732 -0.0003913381082) (4.012565992 0.02483379618 0.02759391259) (4.385949467 0.4360917072 0.1259439746) (5.988547572 1.120959677 0.04267937026) (8.200082953 0.9573928907 -0.1000588121) (9.510964901 0.3685450308 -0.07191342301) (9.913566936 0.07948689482 -0.02013701057) (9.989002151 0.01142653936 -0.003333443029) (9.998903298 0.001235647077 -0.0003936381422));

boundaryField
{
    left
    {
        type            dirichlet;
        value           uniform (4 0 0);
    }
    right
    {
        type            dirichlet;
        value           uniform (4 0 0);
    }
    sides
    {
        type            empty;
    }
}


// ************************************************************************* //
