/*--------------------------------*- C++ -*----------------------------------*\
| =========                 |                                                 |
| \\      /  F ield         | foam-extend: Open Source CFD                    |
|  \\    /   O peration     | Version:     4.1                                |
|   \\  /    A nd           | Web:         http://www.foam-extend.org         |
|    \\/     M anipulation  |                                                 |
\*---------------------------------------------------------------------------*/
FoamFile
{
    version     2.0;
    format      ascii;
    class       regIOobject;
    location    "20/uniform";
    object      profilingInfo;
}
// * * * * * * * * * * * * * * * * * * * * * * * * * * * * * * * * * * * * * //

profilingInfo
(

    {
        id              4;
        parentId        3;
        description     "Foam::Time::writeObject - outputTime";
        calls           200;
        totalTime       0.135783;
        childTime       0;
        onStack         1;
    }

    {
        id              3;
        parentId        1;
        description     "Foam::Time::writeObject";
        calls           200;
        totalTime       0.136517;
        childTime       0.135783;
        onStack         1;
    }

    {
        id              1;
        description     "application::main";
        calls           1;
        totalTime       1.633631;
        childTime       0.136526;
        onStack         1;
    }

    {
        id              2;
        parentId        1;
        description     "functionObjectList::read";
        calls           1;
        totalTime       9e-06;
        childTime       0;
        onStack         0;
    }
);


// ************************************************************************* //
