/*--------------------------------*- C++ -*----------------------------------*\
| =========                 |                                                 |
| \\      /  F ield         | foam-extend: Open Source CFD                    |
|  \\    /   O peration     | Version:     4.1                                |
|   \\  /    A nd           | Web:         http://www.foam-extend.org         |
|    \\/     M anipulation  |                                                 |
\*---------------------------------------------------------------------------*/
FoamFile
{
    version     2.0;
    format      ascii;
    class       cellScalarField;
    location    "43.3";
    object      T;
}
// * * * * * * * * * * * * * * * * * * * * * * * * * * * * * * * * * * * * * //

dimensions      [0 0 0 0 1 0 0];

internalField   nonuniform 
100
(
(4 -5.703630593e-17 1.624202108e-17)
(4 -1.417800038e-17 1.159556986e-16)
(4 -1.094355568e-16 2.3972229e-17)
(4 -7.958066516e-17 1.162600857e-16)
(4 -6.900461951e-17 6.453187076e-17)
(4 -4.974640377e-16 2.784683174e-16)
(4 3.559601944e-16 8.692725213e-17)
(4 -5.219470621e-16 1.471751493e-16)
(4 8.13466986e-16 -1.670168614e-16)
(4 -1.311105603e-15 2.291576336e-16)
(4 -1.293104013e-16 -6.319277972e-17)
(4 5.142462175e-16 -1.475846997e-16)
(4 5.814280483e-16 9.118851169e-17)
(4 -3.703724735e-16 2.919284173e-16)
(4 2.485875333e-16 1.145093347e-16)
(4 5.679922328e-18 8.01360334e-17)
(4 -1.950605922e-16 8.157179488e-17)
(4 1.339336797e-16 -9.191398629e-17)
(4 -2.260516826e-16 2.150416505e-16)
(4 -1.742642578e-16 -1.822232839e-16)
(4 1.235149954e-16 2.149816099e-16)
(4 -2.500872965e-17 3.064854236e-17)
(4 -4.327966976e-17 -5.880310574e-17)
(4 1.879842274e-17 1.717488875e-16)
(4 -1.581063324e-16 -1.012195511e-16)
(4 3.695351906e-17 -1.605600711e-16)
(4 -4.443849375e-17 2.693420712e-16)
(4 -2.72666663e-16 -1.087258333e-16)
(4 2.431161695e-16 -9.034048467e-17)
(4 -8.78878937e-17 6.553410847e-17)
(4 4.411679994e-16 -9.106571758e-17)
(4 -1.726697221e-17 -1.212369835e-16)
(4 -3.504024466e-17 -3.637792942e-18)
(4 -4.656939316e-16 -8.254312189e-17)
(4 3.297447698e-16 1.209387048e-16)
(4 -3.925762296e-16 2.374904425e-16)
(4 8.760044311e-16 -6.76629722e-17)
(4 -9.138918715e-16 2.173584924e-16)
(4 5.505938495e-16 -1.431622289e-16)
(4 -1.346800242e-16 -2.610885509e-17)
(4 2.678391039e-16 -1.885322127e-16)
(4 8.16134564e-18 -1.692400657e-16)
(4 3.916571458e-17 -1.802294773e-16)
(4 -1.286749204e-16 3.206457346e-17)
(4 -3.84923796e-16 2.554021755e-16)
(4 8.601583993e-16 1.32306514e-16)
(4 -8.425448496e-16 2.509300726e-16)
(4 7.684610181e-16 -1.930340907e-16)
(4 -9.144073945e-16 -1.13139651e-16)
(4 4.592559092e-16 9.843473911e-17)
(4 8.784501075e-18 3.433276906e-16)
(4 -4.005885258e-16 5.51371455e-17)
(4 7.520426173e-16 1.574228244e-16)
(4 -9.472708864e-16 -1.168447401e-16)
(4 9.449068188e-16 -7.431520295e-17)
(4 -8.552110036e-16 4.908430911e-16)
(4 3.833037734e-15 1.253377749e-15)
(4 2.95312589e-14 1.395702423e-14)
(4 2.572221696e-13 1.097036442e-13)
(4 1.963734917e-12 8.119183297e-13)
(4 1.408279863e-11 5.576741707e-12)
(4 9.42325207e-11 3.566994883e-11)
(4.000000001 5.864655714e-10 2.113330511e-10)
(4.000000004 3.382593678e-09 1.155359506e-09)
(4.000000023 1.801979145e-08 5.807827463e-09)
(4.000000116 8.840758526e-08 2.676812043e-08)
(4.000000548 3.985936894e-07 1.128876225e-07)
(4.000002388 1.649263141e-06 4.350988279e-07)
(4.000009571 6.259450695e-06 1.532032431e-06)
(4.000035336 2.179448675e-05 4.929294502e-06)
(4.000120229 6.967059032e-05 1.450229221e-05)
(4.000377464 0.0002047210996 3.905272451e-05)
(4.001095227 0.0005537809276 9.636578202e-05)
(4.002942396 0.001381388803 0.0002181505861)
(4.007334335 0.003183385363 0.0004535431625)
(4.016999633 0.006790105852 0.0008667403058)
(4.036723045 0.01343084731 0.001523369457)
(4.074113029 0.02468248381 0.002462597658)
(4.140079459 0.04222179131 0.003659029335)
(4.248585976 0.0673487709 0.004988335466)
(4.415273505 0.1003521368 0.006217619687)
(4.654820304 0.1399137408 0.007038696741)
(4.977386109 0.1828257555 0.007146601757)
(5.385012871 0.2242528307 0.006342049903)
(5.869156878 0.258593038 0.004618026488)
(6.410386062 0.2807400371 0.002190118106)
(6.980664644 0.2873475354 -0.0005487514896)
(7.54778451 0.277658582 -0.003135462687)
(8.080759494 0.2536175746 -0.005164615337)
(8.55470222 0.219258683 -0.006388969885)
(8.953963066 0.1796262321 -0.006759747919)
(9.272975153 0.1396134836 -0.00640226385)
(9.515004969 0.1030677257 -0.005547677717)
(9.689554512 0.07234920784 -0.004453039112)
(9.809344199 0.048341992 -0.0033374731)
(9.887654802 0.03077837174 -0.002348518602)
(9.936470477 0.01869111762 -0.001557992926)
(9.965514788 0.01083726956 -0.0009775123925)
(9.982024534 0.006005024785 -0.0005815604174)
(9.990998846 0.00318291396 -0.0003288010683)
)
;

boundaryField
{
    left
    {
        type            dirichlet;
        value           uniform (4 0 0);
    }
    right
    {
        type            dirichlet;
        value           uniform (4 0 0);
    }
    sides
    {
        type            empty;
    }
}


// ************************************************************************* //
