/*--------------------------------*- C++ -*----------------------------------*\
| =========                 |                                                 |
| \\      /  F ield         | foam-extend: Open Source CFD                    |
|  \\    /   O peration     | Version:     4.1                                |
|   \\  /    A nd           | Web:         http://www.foam-extend.org         |
|    \\/     M anipulation  |                                                 |
\*---------------------------------------------------------------------------*/
FoamFile
{
    version     2.0;
    format      ascii;
    class       volScalarField;
    location    "0";
    object      C;
}
// * * * * * * * * * * * * * * * * * * * * * * * * * * * * * * * * * * * * * //

dimensions      [0 0 0 0 0 0 0];

internalField   nonuniform List<scalar> 
2025
(
-1
-1
-1
-1
-1
-1
-1
-1
-1
-1
-1
-1
-1
-1
-1
-1
-1
-0.999999999999
-0.999999999999
-0.999999999998
-0.999999999997
-0.999999999997
-0.999999999996
-0.999999999997
-0.999999999997
-0.999999999998
-0.999999999999
-0.999999999999
-1
-1
-1
-1
-1
-1
-1
-1
-1
-1
-1
-1
-1
-1
-1
-1
-1
-1
-1
-1
-1
-1
-1
-1
-1
-1
-1
-1
-1
-1
-1
-0.999999999999
-0.999999999997
-0.999999999995
-0.99999999999
-0.999999999983
-0.999999999974
-0.999999999965
-0.999999999958
-0.999999999955
-0.999999999957
-0.999999999964
-0.999999999973
-0.999999999982
-0.99999999999
-0.999999999994
-0.999999999997
-0.999999999999
-1
-1
-1
-1
-1
-1
-1
-1
-1
-1
-1
-1
-1
-1
-1
-1
-1
-1
-1
-1
-1
-1
-1
-1
-1
-1
-0.999999999999
-0.999999999996
-0.999999999989
-0.999999999972
-0.99999999994
-0.999999999883
-0.999999999796
-0.999999999684
-0.999999999568
-0.999999999477
-0.999999999441
-0.999999999474
-0.999999999563
-0.999999999679
-0.999999999791
-0.99999999988
-0.999999999938
-0.999999999971
-0.999999999988
-0.999999999996
-0.999999999998
-1
-1
-1
-1
-1
-1
-1
-1
-1
-1
-1
-1
-1
-1
-1
-1
-1
-1
-1
-1
-1
-1
-0.999999999999
-0.999999999996
-0.999999999987
-0.999999999958
-0.999999999884
-0.999999999707
-0.999999999337
-0.999999998662
-0.999999997606
-0.999999996215
-0.999999994731
-0.99999999356
-0.999999993099
-0.999999993521
-0.999999994668
-0.999999996148
-0.99999999755
-0.999999998623
-0.999999999314
-0.999999999695
-0.999999999879
-0.999999999956
-0.999999999986
-0.999999999996
-0.999999999999
-1
-1
-1
-1
-1
-1
-1
-1
-1
-1
-1
-1
-1
-1
-1
-1
-1
-1
-1
-0.999999999998
-0.999999999991
-0.999999999965
-0.999999999877
-0.999999999602
-0.999999998833
-0.999999996924
-0.999999992757
-0.999999984862
-0.999999972073
-0.999999954746
-0.99999993586
-0.999999920727
-0.999999914731
-0.999999920228
-0.999999935053
-0.999999953897
-0.999999971379
-0.999999984397
-0.999999992494
-0.999999996795
-0.999999998778
-0.999999999581
-0.99999999987
-0.999999999963
-0.999999999991
-0.999999999998
-0.999999999999
-1
-1
-1
-1
-1
-1
-1
-1
-1
-1
-1
-1
-1
-1
-1
-0.999999999999
-0.999999999997
-0.999999999984
-0.999999999929
-0.99999999971
-0.999999998911
-0.999999996281
-0.999999988529
-0.999999968282
-0.999999921961
-0.999999830355
-0.999999676299
-0.999999460992
-0.999999220545
-0.999999024679
-0.999998946398
-0.999999018178
-0.999999210173
-0.999999450289
-0.999999667801
-0.999999824852
-0.999999918967
-0.999999966886
-0.999999987963
-0.999999996079
-0.999999998847
-0.999999999692
-0.999999999924
-0.999999999983
-0.999999999996
-0.999999999999
-1
-1
-1
-1
-1
-1
-1
-1
-1
-1
-1
-1
-1
-0.999999999999
-0.999999999996
-0.999999999977
-0.999999999885
-0.99999999946
-0.999999997654
-0.999999990666
-0.999999966245
-0.999999889971
-0.999999679428
-0.999999172137
-0.999998120394
-0.999996276649
-0.999993608653
-0.99999054732
-0.99998800674
-0.999986981602
-0.999987921801
-0.999990413737
-0.999993473995
-0.999996173067
-0.999998055883
-0.999999138588
-0.999999664556
-0.999999884261
-0.99999996432
-0.999999990089
-0.999999997499
-0.999999999422
-0.999999999877
-0.999999999976
-0.999999999995
-0.999999999999
-1
-1
-1
-1
-1
-1
-1
-1
-1
-1
-1
-0.999999999999
-0.999999999996
-0.999999999975
-0.999999999854
-0.999999999214
-0.999999996065
-0.999999981804
-0.999999922934
-0.999999703585
-0.999998974067
-0.999996834652
-0.999991377068
-0.999979453834
-0.999957560712
-0.999924619871
-0.999885651785
-0.999852625602
-0.999839154469
-0.999851512397
-0.999883929235
-0.99992292871
-0.999956305376
-0.999978705453
-0.999991007032
-0.999996679528
-0.999998917965
-0.999999685819
-0.999999917942
-0.999999980545
-0.999999995777
-0.999999999154
-0.999999999842
-0.999999999972
-0.999999999995
-0.999999999999
-1
-1
-1
-1
-1
-1
-1
-1
-1
-1
-0.999999999997
-0.999999999977
-0.999999999854
-0.999999999111
-0.9999999949
-0.999999972749
-0.999999865386
-0.999999390536
-0.999997494742
-0.999990744129
-0.999969589304
-0.999912112198
-0.999779010084
-0.999521611171
-0.999116990698
-0.99862165342
-0.998191835124
-0.998014380952
-0.998177214535
-0.998599438097
-0.999095818037
-0.999506512557
-0.999770439901
-0.999908106907
-0.999968011067
-0.999990209725
-0.999997336686
-0.999999349111
-0.99999985564
-0.999999970667
-0.999999994492
-0.999999999036
-0.999999999842
-0.999999999975
-0.999999999996
-0.999999999999
-1
-1
-1
-1
-1
-1
-1
-1
-0.999999999998
-0.999999999984
-0.999999999886
-0.999999999219
-0.999999994915
-0.999999968862
-0.999999821906
-0.999999056531
-0.999995413286
-0.999979745587
-0.999919660343
-0.999717170222
-0.999127385355
-0.99767085632
-0.994689966742
-0.989781070093
-0.983560403705
-0.978041721687
-0.975738923765
-0.977852475273
-0.983277527151
-0.989519146199
-0.994510812474
-0.997574430818
-0.999085036812
-0.999701587828
-0.999914752762
-0.999978398328
-0.999995085723
-0.999998985
-0.999999807702
-0.999999966268
-0.999999994475
-0.999999999149
-0.999999999876
-0.999999999983
-0.999999999998
-1
-1
-1
-1
-1
-1
-1
-0.999999999999
-0.999999999991
-0.99999999993
-0.999999999466
-0.999999996099
-0.999999972916
-0.999999822474
-0.999998909929
-0.999993783781
-0.999967401064
-0.999844519344
-0.999333864942
-0.997471617321
-0.991629765015
-0.97625470452
-0.943363300299
-0.888330750782
-0.819588423987
-0.760530339588
-0.736522331234
-0.758542709968
-0.81651217681
-0.885402154315
-0.941360809108
-0.975211725497
-0.991197276452
-0.997323494231
-0.999290735882
-0.999833599411
-0.999964952406
-0.999993289918
-0.99999881914
-0.999999807085
-0.999999970487
-0.999999995739
-0.999999999416
-0.999999999923
-0.99999999999
-0.999999999999
-1
-1
-1
-1
-1
-1
-0.999999999996
-0.999999999966
-0.999999999715
-0.999999997688
-0.999999982024
-0.999999866662
-0.999999062772
-0.999993805323
-0.999961840362
-0.999783171304
-0.998877146861
-0.994777281707
-0.978599626523
-0.924997486362
-0.785254102552
-0.523597700824
-0.195678572923
0.0822945257152
0.249292236569
0.304290137634
0.254089253023
0.0923365573977
-0.181323598127
-0.50942404514
-0.77611361688
-0.920987033875
-0.977274696767
-0.994418919934
-0.998793801331
-0.99976602758
-0.999958662225
-0.999993266537
-0.999998978228
-0.999999854256
-0.999999980307
-0.999999997462
-0.999999999686
-0.999999999963
-0.999999999996
-1
-1
-1
-1
-1
-0.999999999999
-0.999999999987
-0.99999999988
-0.999999998933
-0.999999990832
-0.999999924133
-0.999999398492
-0.999995460455
-0.999967636079
-0.999783993848
-0.998665004453
-0.992469181937
-0.962144687091
-0.839271213584
-0.487188868832
0.074756657193
0.531657875891
0.76563504763
0.865991116644
0.906191776889
0.917234929351
0.907193174542
0.868738759842
0.77227807971
0.546559821459
0.0998606250717
-0.464679804271
-0.829416358138
-0.95942864532
-0.991879495068
-0.998553897057
-0.999765134719
-0.999964697385
-0.999995034561
-0.999999340486
-0.999999916644
-0.999999989909
-0.999999998824
-0.999999999867
-0.999999999985
-0.999999999998
-1
-1
-1
-1
-0.999999999996
-0.99999999996
-0.999999999612
-0.999999996368
-0.999999966965
-0.999999709276
-0.999997536919
-0.999980033095
-0.999846266534
-0.9988860348
-0.99250062478
-0.954302887673
-0.767371304802
-0.205194369619
0.484647394822
0.829321195091
0.941356387668
0.976098313631
0.987790294581
0.991950751163
0.993036854769
0.992050294503
0.98808454414
0.976928637862
0.943916192632
0.837705565444
0.508288362876
-0.171701755018
-0.751468632522
-0.950590937118
-0.991845378002
-0.998784156393
-0.999831704273
-0.99997808666
-0.999997290995
-0.999999679658
-0.999999963541
-0.999999995986
-0.999999999571
-0.999999999955
-0.999999999995
-1
-1
-1
-0.999999999999
-0.999999999989
-0.999999999887
-0.999999998866
-0.999999988835
-0.999999892718
-0.999998997667
-0.99999093674
-0.999921133762
-0.99934422005
-0.99484179961
-0.96247099852
-0.768334019042
-0.0997676351189
0.641408611082
0.914501604997
0.978789151834
0.993789855324
0.99773766423
0.998935862216
0.999334237469
0.999434651203
0.99934351174
0.998964649929
0.997825677982
0.994095344621
0.980011286861
0.919888051679
0.662812819998
-0.0600284221261
-0.750443016375
-0.959075557951
-0.994348965239
-0.99927951209
-0.999913156873
-0.999990001262
-0.999998892443
-0.999999881293
-0.999999987632
-0.999999998742
-0.999999999875
-0.999999999988
-0.999999999999
-1
-1
-0.999999999998
-0.999999999973
-0.999999999716
-0.999999997021
-0.999999969242
-0.99999968863
-0.999996919942
-0.999970348256
-0.999723590263
-0.99752245447
-0.978963511212
-0.841311659235
-0.20993542642
0.639842172185
0.932559201919
0.987489146892
0.997346624877
0.999320092273
0.99977994378
0.999905999201
0.999944840728
0.999954233306
0.999945716226
0.999908875772
0.999789534628
0.999357193271
0.997515286269
0.988372044766
0.937582470238
0.664304244715
-0.166875886125
-0.827231677869
-0.976880995815
-0.997268457154
-0.999694642338
-0.999967190693
-0.999996587412
-0.999999654625
-0.99999996585
-0.99999999669
-0.999999999685
-0.99999999997
-0.999999999997
-1
-1
-0.999999999995
-0.999999999942
-0.999999999361
-0.999999993012
-0.999999924607
-0.999999199072
-0.999991644331
-0.999914682477
-0.999151153535
-0.991837776488
-0.926608201593
-0.494542902741
0.478631258204
0.91357231986
0.987412764364
0.998008266008
0.999636178186
0.999919710964
0.999977461385
0.999991472561
0.999995396539
0.999996295918
0.999995481369
0.999991772252
0.999978573373
0.999924594624
0.99966159327
0.998161256751
0.9884428826
0.920754953584
0.514091394351
-0.457028812034
-0.919253860865
-0.99097250451
-0.999059363975
-0.999905333086
-0.999990718855
-0.99999910957
-0.999999916118
-0.99999999222
-0.999999999288
-0.999999999936
-0.999999999994
-0.999999999999
-0.999999999999
-0.99999999999
-0.999999999888
-0.999999998715
-0.999999985446
-0.999999836726
-0.999998188831
-0.999980175276
-0.999786442313
-0.997745156213
-0.976958089571
-0.790573021484
0.0621840034994
0.825863961285
0.978408929794
0.997311608992
0.999633539373
0.999943049601
0.999989427649
0.999997506965
0.999999193742
0.999999611189
0.999999700218
0.999999619721
0.999999226917
0.999997647938
0.999990149062
0.99994742803
0.999664039978
0.997547770079
0.9803647207
0.84095774137
0.112384003131
-0.770460465818
-0.974453980573
-0.997494342629
-0.999762435086
-0.999977929101
-0.999997982297
-0.999999818007
-0.99999998377
-0.999999998567
-0.999999999874
-0.999999999989
-0.999999999999
-0.999999999999
-0.999999999983
-0.999999999805
-0.999999997708
-0.999999973246
-0.999999689636
-0.999996426668
-0.999959226678
-0.999539819584
-0.994884356434
-0.94529719663
-0.535751892324
0.520275972961
0.93970186948
0.993631523076
0.999305661753
0.999918444169
0.999989334066
0.99999837312
0.999999689883
0.999999918451
0.99999996648
0.999999975738
0.999999967387
0.999999922474
0.999999710235
0.9999984982
0.99999023592
0.999925770927
0.999370603574
0.994242668877
0.945462919959
0.557529115024
-0.496775036257
-0.939287354702
-0.994301829287
-0.999486948522
-0.999954516817
-0.999996012129
-0.999999653503
-0.999999970122
-0.99999999744
-0.999999999782
-0.999999999982
-0.999999999998
-0.999999999998
-0.999999999975
-0.999999999699
-0.999999996389
-0.999999956801
-0.999999485143
-0.999993890732
-0.99992788892
-0.999154494286
-0.990202798866
-0.892587273335
-0.214665000294
0.757683873434
0.975239790231
0.997661737916
0.99977332134
0.999976885245
0.999997458251
0.999999686365
0.999999953526
0.999999990713
0.999999996994
0.999999998036
0.999999997099
0.999999991278
0.999999957099
0.999999713505
0.999997693253
0.999979109814
0.999795706988
0.997896522414
0.977731626829
0.779830304428
-0.162040328424
-0.880868651329
-0.989067218317
-0.999055636473
-0.999919428619
-0.999993172177
-0.999999424463
-0.999999951701
-0.999999995962
-0.999999999663
-0.999999999972
-0.999999999998
-0.999999999997
-0.999999999966
-0.999999999589
-0.99999999499
-0.999999938984
-0.999999258215
-0.999991000028
-0.999891071077
-0.998686152162
-0.984313359874
-0.827068806134
0.0596683286304
0.860342526415
0.98725866776
0.998891248994
0.999902282693
0.999991162663
0.999999168
0.999999916368
0.999999990567
0.999999998672
0.999999999705
0.999999999841
0.999999999719
0.999999998774
0.999999991415
0.999999924417
0.999999250964
0.999992062052
0.999912354546
0.999006446412
0.98858332931
0.874084337136
0.114885884492
-0.808605855491
-0.982473686966
-0.998530558702
-0.999878144763
-0.999989930769
-0.999999170004
-0.999999931723
-0.999999994393
-0.99999999954
-0.999999999962
-0.999999999997
-0.999999999997
-0.99999999996
-0.999999999504
-0.999999993895
-0.999999924843
-0.999999075129
-0.999988624581
-0.999860181992
-0.998283977702
-0.979143080383
-0.771200527942
0.225154187059
0.9015628599
0.991540586042
0.999300787233
0.999942133587
0.999995177905
0.999999593593
0.999999965076
0.999999996885
0.999999999697
0.999999999962
0.999999999987
0.999999999965
0.999999999727
0.999999997202
0.999999968707
0.999999636269
0.999995687098
0.999948264707
0.999375014288
0.992436872913
0.911580135263
0.27790951596
-0.747343405586
-0.976681545295
-0.998079172528
-0.999843474367
-0.999987264786
-0.999998964545
-0.999999915854
-0.999999993165
-0.999999999445
-0.999999999955
-0.999999999996
-0.999999999997
-0.999999999957
-0.999999999472
-0.999999993478
-0.999999919417
-0.999999004307
-0.999987697098
-0.999847993577
-0.99812339892
-0.977056825244
-0.74918434128
0.278435613533
0.91263381829
0.992633617374
0.999401805803
0.99995157419
0.99999608076
0.999999682811
0.99999997433
0.999999997922
0.999999999832
0.999999999986
0.999999999999
0.999999999988
0.99999999985
0.999999998145
0.999999977076
0.999999716741
0.999996500007
0.999956754273
0.999465778602
0.993419019465
0.921613243157
0.329755546792
-0.723296922284
-0.974343822129
-0.997898845615
-0.999829786973
-0.9999862234
-0.999998885038
-0.999999909765
-0.999999992697
-0.999999999409
-0.999999999952
-0.999999999996
-0.999999999997
-0.99999999996
-0.999999999504
-0.999999993895
-0.999999924843
-0.999999075129
-0.999988624581
-0.999860181992
-0.998283977702
-0.979143080383
-0.771200527942
0.225154187059
0.9015628599
0.991540586042
0.999300787233
0.999942133587
0.999995177905
0.999999593593
0.999999965076
0.999999996885
0.999999999697
0.999999999962
0.999999999987
0.999999999965
0.999999999727
0.999999997202
0.999999968707
0.999999636269
0.999995687098
0.999948264707
0.999375014288
0.992436872913
0.911580135263
0.27790951596
-0.747343405586
-0.976681545295
-0.998079172528
-0.999843474367
-0.999987264786
-0.999998964545
-0.999999915854
-0.999999993165
-0.999999999445
-0.999999999955
-0.999999999996
-0.999999999997
-0.999999999966
-0.999999999589
-0.99999999499
-0.999999938984
-0.999999258215
-0.999991000028
-0.999891071077
-0.998686152162
-0.984313359874
-0.827068806134
0.0596683286304
0.860342526415
0.98725866776
0.998891248994
0.999902282693
0.999991162663
0.999999168
0.999999916368
0.999999990567
0.999999998672
0.999999999705
0.999999999841
0.999999999719
0.999999998774
0.999999991415
0.999999924417
0.999999250964
0.999992062052
0.999912354546
0.999006446412
0.98858332931
0.874084337136
0.114885884492
-0.808605855491
-0.982473686966
-0.998530558702
-0.999878144763
-0.999989930769
-0.999999170004
-0.999999931723
-0.999999994393
-0.99999999954
-0.999999999962
-0.999999999997
-0.999999999998
-0.999999999975
-0.999999999699
-0.999999996389
-0.999999956801
-0.999999485143
-0.999993890732
-0.99992788892
-0.999154494286
-0.990202798866
-0.892587273335
-0.214665000294
0.757683873434
0.975239790231
0.997661737916
0.99977332134
0.999976885245
0.999997458251
0.999999686365
0.999999953526
0.999999990713
0.999999996994
0.999999998036
0.999999997099
0.999999991278
0.999999957099
0.999999713505
0.999997693253
0.999979109814
0.999795706988
0.997896522414
0.977731626829
0.779830304428
-0.162040328424
-0.880868651329
-0.989067218317
-0.999055636473
-0.999919428619
-0.999993172177
-0.999999424463
-0.999999951701
-0.999999995962
-0.999999999663
-0.999999999972
-0.999999999998
-0.999999999999
-0.999999999983
-0.999999999805
-0.999999997708
-0.999999973246
-0.999999689636
-0.999996426668
-0.999959226678
-0.999539819584
-0.994884356434
-0.94529719663
-0.535751892324
0.520275972961
0.93970186948
0.993631523076
0.999305661753
0.999918444169
0.999989334066
0.99999837312
0.999999689883
0.999999918451
0.99999996648
0.999999975738
0.999999967387
0.999999922474
0.999999710235
0.9999984982
0.99999023592
0.999925770927
0.999370603574
0.994242668877
0.945462919959
0.557529115024
-0.496775036257
-0.939287354702
-0.994301829287
-0.999486948522
-0.999954516817
-0.999996012129
-0.999999653503
-0.999999970122
-0.99999999744
-0.999999999782
-0.999999999982
-0.999999999998
-0.999999999999
-0.99999999999
-0.999999999888
-0.999999998715
-0.999999985446
-0.999999836726
-0.999998188831
-0.999980175276
-0.999786442313
-0.997745156213
-0.976958089571
-0.790573021484
0.0621840034994
0.825863961285
0.978408929794
0.997311608992
0.999633539373
0.999943049601
0.999989427649
0.999997506965
0.999999193742
0.999999611189
0.999999700218
0.999999619721
0.999999226917
0.999997647938
0.999990149062
0.99994742803
0.999664039978
0.997547770079
0.9803647207
0.84095774137
0.112384003131
-0.770460465818
-0.974453980573
-0.997494342629
-0.999762435086
-0.999977929101
-0.999997982297
-0.999999818007
-0.99999998377
-0.999999998567
-0.999999999874
-0.999999999989
-0.999999999999
-1
-0.999999999995
-0.999999999942
-0.999999999361
-0.999999993012
-0.999999924607
-0.999999199072
-0.999991644331
-0.999914682477
-0.999151153535
-0.991837776488
-0.926608201593
-0.494542902741
0.478631258204
0.91357231986
0.987412764364
0.998008266008
0.999636178186
0.999919710964
0.999977461385
0.999991472561
0.999995396539
0.999996295918
0.999995481369
0.999991772252
0.999978573373
0.999924594624
0.99966159327
0.998161256751
0.9884428826
0.920754953584
0.514091394351
-0.457028812034
-0.919253860865
-0.99097250451
-0.999059363975
-0.999905333086
-0.999990718855
-0.99999910957
-0.999999916118
-0.99999999222
-0.999999999288
-0.999999999936
-0.999999999994
-0.999999999999
-1
-0.999999999998
-0.999999999973
-0.999999999716
-0.999999997021
-0.999999969242
-0.99999968863
-0.999996919942
-0.999970348256
-0.999723590263
-0.99752245447
-0.978963511212
-0.841311659235
-0.20993542642
0.639842172185
0.932559201919
0.987489146892
0.997346624877
0.999320092273
0.99977994378
0.999905999201
0.999944840728
0.999954233306
0.999945716226
0.999908875772
0.999789534628
0.999357193271
0.997515286269
0.988372044766
0.937582470238
0.664304244715
-0.166875886125
-0.827231677869
-0.976880995815
-0.997268457154
-0.999694642338
-0.999967190693
-0.999996587412
-0.999999654625
-0.99999996585
-0.99999999669
-0.999999999685
-0.99999999997
-0.999999999997
-1
-1
-0.999999999999
-0.999999999989
-0.999999999887
-0.999999998866
-0.999999988835
-0.999999892718
-0.999998997667
-0.99999093674
-0.999921133762
-0.99934422005
-0.99484179961
-0.96247099852
-0.768334019042
-0.0997676351189
0.641408611082
0.914501604997
0.978789151834
0.993789855324
0.99773766423
0.998935862216
0.999334237469
0.999434651203
0.99934351174
0.998964649929
0.997825677982
0.994095344621
0.980011286861
0.919888051679
0.662812819998
-0.0600284221261
-0.750443016375
-0.959075557951
-0.994348965239
-0.99927951209
-0.999913156873
-0.999990001262
-0.999998892443
-0.999999881293
-0.999999987632
-0.999999998742
-0.999999999875
-0.999999999988
-0.999999999999
-1
-1
-1
-0.999999999996
-0.99999999996
-0.999999999612
-0.999999996368
-0.999999966965
-0.999999709276
-0.999997536919
-0.999980033095
-0.999846266534
-0.9988860348
-0.99250062478
-0.954302887673
-0.767371304802
-0.205194369619
0.484647394822
0.829321195091
0.941356387668
0.976098313631
0.987790294581
0.991950751163
0.993036854769
0.992050294503
0.98808454414
0.976928637862
0.943916192632
0.837705565444
0.508288362876
-0.171701755018
-0.751468632522
-0.950590937118
-0.991845378002
-0.998784156393
-0.999831704273
-0.99997808666
-0.999997290995
-0.999999679658
-0.999999963541
-0.999999995986
-0.999999999571
-0.999999999955
-0.999999999995
-1
-1
-1
-1
-0.999999999999
-0.999999999987
-0.99999999988
-0.999999998933
-0.999999990832
-0.999999924133
-0.999999398492
-0.999995460455
-0.999967636079
-0.999783993848
-0.998665004453
-0.992469181937
-0.962144687091
-0.839271213584
-0.487188868832
0.074756657193
0.531657875891
0.76563504763
0.865991116644
0.906191776889
0.917234929351
0.907193174542
0.868738759842
0.77227807971
0.546559821459
0.0998606250717
-0.464679804271
-0.829416358138
-0.95942864532
-0.991879495068
-0.998553897057
-0.999765134719
-0.999964697385
-0.999995034561
-0.999999340486
-0.999999916644
-0.999999989909
-0.999999998824
-0.999999999867
-0.999999999985
-0.999999999998
-1
-1
-1
-1
-1
-0.999999999996
-0.999999999966
-0.999999999715
-0.999999997688
-0.999999982024
-0.999999866662
-0.999999062772
-0.999993805323
-0.999961840362
-0.999783171304
-0.998877146861
-0.994777281707
-0.978599626523
-0.924997486362
-0.785254102552
-0.523597700824
-0.195678572923
0.0822945257152
0.249292236569
0.304290137634
0.254089253023
0.0923365573977
-0.181323598127
-0.50942404514
-0.77611361688
-0.920987033875
-0.977274696767
-0.994418919934
-0.998793801331
-0.99976602758
-0.999958662225
-0.999993266537
-0.999998978228
-0.999999854256
-0.999999980307
-0.999999997462
-0.999999999686
-0.999999999963
-0.999999999996
-1
-1
-1
-1
-1
-1
-0.999999999999
-0.999999999991
-0.99999999993
-0.999999999466
-0.999999996099
-0.999999972916
-0.999999822474
-0.999998909929
-0.999993783781
-0.999967401064
-0.999844519344
-0.999333864942
-0.997471617321
-0.991629765015
-0.97625470452
-0.943363300299
-0.888330750782
-0.819588423987
-0.760530339588
-0.736522331234
-0.758542709968
-0.81651217681
-0.885402154315
-0.941360809108
-0.975211725497
-0.991197276452
-0.997323494231
-0.999290735882
-0.999833599411
-0.999964952406
-0.999993289918
-0.99999881914
-0.999999807085
-0.999999970487
-0.999999995739
-0.999999999416
-0.999999999923
-0.99999999999
-0.999999999999
-1
-1
-1
-1
-1
-1
-1
-0.999999999998
-0.999999999984
-0.999999999886
-0.999999999219
-0.999999994915
-0.999999968862
-0.999999821906
-0.999999056531
-0.999995413286
-0.999979745587
-0.999919660343
-0.999717170222
-0.999127385355
-0.99767085632
-0.994689966742
-0.989781070093
-0.983560403705
-0.978041721687
-0.975738923765
-0.977852475273
-0.983277527151
-0.989519146199
-0.994510812474
-0.997574430818
-0.999085036812
-0.999701587828
-0.999914752762
-0.999978398328
-0.999995085723
-0.999998985
-0.999999807702
-0.999999966268
-0.999999994475
-0.999999999149
-0.999999999876
-0.999999999983
-0.999999999998
-1
-1
-1
-1
-1
-1
-1
-1
-1
-0.999999999997
-0.999999999977
-0.999999999854
-0.999999999111
-0.9999999949
-0.999999972749
-0.999999865386
-0.999999390536
-0.999997494742
-0.999990744129
-0.999969589304
-0.999912112198
-0.999779010084
-0.999521611171
-0.999116990698
-0.99862165342
-0.998191835124
-0.998014380952
-0.998177214535
-0.998599438097
-0.999095818037
-0.999506512557
-0.999770439901
-0.999908106907
-0.999968011067
-0.999990209725
-0.999997336686
-0.999999349111
-0.99999985564
-0.999999970667
-0.999999994492
-0.999999999036
-0.999999999842
-0.999999999975
-0.999999999996
-0.999999999999
-1
-1
-1
-1
-1
-1
-1
-1
-1
-0.999999999999
-0.999999999996
-0.999999999975
-0.999999999854
-0.999999999214
-0.999999996065
-0.999999981804
-0.999999922934
-0.999999703585
-0.999998974067
-0.999996834652
-0.999991377068
-0.999979453834
-0.999957560712
-0.999924619871
-0.999885651785
-0.999852625602
-0.999839154469
-0.999851512397
-0.999883929235
-0.99992292871
-0.999956305376
-0.999978705453
-0.999991007032
-0.999996679528
-0.999998917965
-0.999999685819
-0.999999917942
-0.999999980545
-0.999999995777
-0.999999999154
-0.999999999842
-0.999999999972
-0.999999999995
-0.999999999999
-1
-1
-1
-1
-1
-1
-1
-1
-1
-1
-1
-0.999999999999
-0.999999999996
-0.999999999977
-0.999999999885
-0.99999999946
-0.999999997654
-0.999999990666
-0.999999966245
-0.999999889971
-0.999999679428
-0.999999172137
-0.999998120394
-0.999996276649
-0.999993608653
-0.99999054732
-0.99998800674
-0.999986981602
-0.999987921801
-0.999990413737
-0.999993473995
-0.999996173067
-0.999998055883
-0.999999138588
-0.999999664556
-0.999999884261
-0.99999996432
-0.999999990089
-0.999999997499
-0.999999999422
-0.999999999877
-0.999999999976
-0.999999999995
-0.999999999999
-1
-1
-1
-1
-1
-1
-1
-1
-1
-1
-1
-1
-1
-0.999999999999
-0.999999999997
-0.999999999984
-0.999999999929
-0.99999999971
-0.999999998911
-0.999999996281
-0.999999988529
-0.999999968282
-0.999999921961
-0.999999830355
-0.999999676299
-0.999999460992
-0.999999220545
-0.999999024679
-0.999998946398
-0.999999018178
-0.999999210173
-0.999999450289
-0.999999667801
-0.999999824852
-0.999999918967
-0.999999966886
-0.999999987963
-0.999999996079
-0.999999998847
-0.999999999692
-0.999999999924
-0.999999999983
-0.999999999996
-0.999999999999
-1
-1
-1
-1
-1
-1
-1
-1
-1
-1
-1
-1
-1
-1
-1
-1
-0.999999999998
-0.999999999991
-0.999999999965
-0.999999999877
-0.999999999602
-0.999999998833
-0.999999996924
-0.999999992757
-0.999999984862
-0.999999972073
-0.999999954746
-0.99999993586
-0.999999920727
-0.999999914731
-0.999999920228
-0.999999935053
-0.999999953897
-0.999999971379
-0.999999984397
-0.999999992494
-0.999999996795
-0.999999998778
-0.999999999581
-0.99999999987
-0.999999999963
-0.999999999991
-0.999999999998
-0.999999999999
-1
-1
-1
-1
-1
-1
-1
-1
-1
-1
-1
-1
-1
-1
-1
-1
-1
-1
-0.999999999999
-0.999999999996
-0.999999999987
-0.999999999958
-0.999999999884
-0.999999999707
-0.999999999337
-0.999999998662
-0.999999997606
-0.999999996215
-0.999999994731
-0.99999999356
-0.999999993099
-0.999999993521
-0.999999994668
-0.999999996148
-0.99999999755
-0.999999998623
-0.999999999314
-0.999999999695
-0.999999999879
-0.999999999956
-0.999999999986
-0.999999999996
-0.999999999999
-1
-1
-1
-1
-1
-1
-1
-1
-1
-1
-1
-1
-1
-1
-1
-1
-1
-1
-1
-1
-1
-1
-0.999999999999
-0.999999999996
-0.999999999989
-0.999999999972
-0.99999999994
-0.999999999883
-0.999999999796
-0.999999999684
-0.999999999568
-0.999999999477
-0.999999999441
-0.999999999474
-0.999999999563
-0.999999999679
-0.999999999791
-0.99999999988
-0.999999999938
-0.999999999971
-0.999999999988
-0.999999999996
-0.999999999998
-1
-1
-1
-1
-1
-1
-1
-1
-1
-1
-1
-1
-1
-1
-1
-1
-1
-1
-1
-1
-1
-1
-1
-1
-1
-1
-0.999999999999
-0.999999999997
-0.999999999995
-0.99999999999
-0.999999999983
-0.999999999974
-0.999999999965
-0.999999999958
-0.999999999955
-0.999999999957
-0.999999999964
-0.999999999973
-0.999999999982
-0.99999999999
-0.999999999994
-0.999999999997
-0.999999999999
-1
-1
-1
-1
-1
-1
-1
-1
-1
-1
-1
-1
-1
-1
-1
-1
-1
-1
-1
-1
-1
-1
-1
-1
-1
-1
-1
-1
-1
-1
-1
-0.999999999999
-0.999999999999
-0.999999999998
-0.999999999997
-0.999999999997
-0.999999999996
-0.999999999997
-0.999999999997
-0.999999999998
-0.999999999999
-0.999999999999
-1
-1
-1
-1
-1
-1
-1
-1
-1
-1
-1
-1
-1
-1
-1
-1
-1
)
;

boundaryField
{
    top
    {
        type            zeroGradient;
    }
    bottom
    {
        type            zeroGradient;
    }
    left
    {
        type            zeroGradient;
    }
    right
    {
        type            zeroGradient;
    }
    frontAndBack
    {
        type            zeroGradient;
    }
}


// ************************************************************************* //
