/*--------------------------------*- C++ -*----------------------------------*\
| =========                 |                                                 |
| \\      /  F ield         | foam-extend: Open Source CFD                    |
|  \\    /   O peration     | Version:     4.1                                |
|   \\  /    A nd           | Web:         http://www.foam-extend.org         |
|    \\/     M anipulation  |                                                 |
\*---------------------------------------------------------------------------*/
FoamFile
{
    version     2.0;
    format      ascii;
    class       cellScalarField;
    location    "6.1";
    object      T;
}
// * * * * * * * * * * * * * * * * * * * * * * * * * * * * * * * * * * * * * //

dimensions      [0 0 0 0 1 0 0];

internalField   nonuniform 
100
(
(4 -1.018738963e-13 5.610665066e-13)
(4 1.360228479e-11 -2.827994221e-11)
(4 -1.193082414e-10 1.189732522e-09)
(4.000000025 3.075032259e-08 -2.581352063e-09)
(4.000000113 5.526613068e-08 4.066784439e-07)
(4.000011325 1.657716753e-05 8.645113348e-06)
(4.00015714 0.000147880053 8.478767192e-05)
(4.002263601 0.002790913045 0.00185889927)
(4.031433964 0.03401666132 0.01354931824)
(4.219263255 0.1747198628 0.03988257914)
(4.842322142 0.4627200197 0.05256713486)
(6.049803031 0.7228746883 0.02083881493)
(7.539734206 0.7266061268 -0.02714824412)
(8.785105712 0.5004234452 -0.04535552206)
(9.525502009 0.2482949817 -0.03332784435)
(9.851770144 0.09262116833 -0.01576767756)
(9.962291767 0.02696423807 -0.005397769783)
(9.992027413 0.006331189415 -0.00142601315)
(9.998570193 0.001233864973 -0.0003039573079)
(9.999778316 0.0002045859776 -5.406692964e-05)
(9.999969773 2.947560736e-05 -8.242424075e-06)
(9.999996321 3.756414168e-06 -1.100301972e-06)
(9.999999595 4.298754484e-07 -1.308929367e-07)
(9.999999959 4.473888527e-08 -1.407799866e-08)
(9.999999996 4.280221309e-09 -1.385473166e-09)
(10 3.79880319e-10 -1.260257446e-10)
(10 3.152062089e-11 -1.068423375e-11)
(10 2.465908484e-12 -8.518127729e-13)
(10 1.797912614e-13 -6.332449229e-14)
(10 1.236002813e-14 -4.743638939e-15)
(10 -1.758165689e-15 3.931401526e-16)
(10 1.095703516e-15 -2.261837736e-16)
(10 -3.632925667e-16 -7.398018411e-16)
(10 1.832329578e-15 9.523287096e-17)
(10 -1.364144323e-15 4.152341002e-16)
(10 1.182393813e-15 -4.952046017e-16)
(10 -4.491205093e-16 5.258487371e-16)
(10 -3.197848351e-16 3.435777258e-16)
(10 -2.104698029e-16 -6.534192005e-17)
(10 -3.026310905e-16 3.735312437e-17)
(10 -2.525583009e-17 -3.043653533e-16)
(10 -3.176820976e-16 1.65287162e-16)
(10 -3.09625547e-16 -9.356323591e-17)
(10 -6.309082945e-17 5.300389835e-16)
(10 -5.839011687e-16 2.667429053e-16)
(10 2.543885545e-17 -1.389548655e-16)
(10 3.373367301e-16 -6.369414389e-17)
(10 -1.711862975e-16 2.263348755e-16)
(10 -2.523291548e-16 -1.508229655e-16)
(10 -2.922187468e-16 -7.778031936e-17)
(10 1.808607973e-16 3.070162781e-16)
(10 -2.49318926e-16 3.164087687e-16)
(10 -1.918092485e-16 5.745622757e-16)
(10 -1.639458028e-16 1.420049572e-16)
(10 -1.300682109e-16 2.757501344e-16)
(10 -2.409990997e-16 1.553484204e-17)
(10 -3.093905255e-16 6.489192761e-17)
(10 3.124138406e-16 -3.661027567e-16)
(10 3.185463172e-17 4.968406569e-17)
(10 -1.456091117e-16 -3.763257675e-16)
(10 4.130560516e-17 4.553089121e-16)
(10 -1.080810088e-16 -2.660973724e-18)
(10 4.231710706e-16 5.910967819e-16)
(10 -2.706746476e-16 1.292976294e-16)
(10 2.353702228e-16 1.995407413e-16)
(10 -2.666489959e-16 -2.68807183e-17)
(10 1.364853921e-16 1.749757891e-17)
(10 -2.188385902e-16 5.564619917e-16)
(10 -1.000862169e-15 5.078880463e-16)
(10 1.354184939e-16 -7.673887637e-17)
(10 4.236895964e-18 -2.400961834e-18)
(10 1.325615644e-19 -7.511991314e-20)
(10 4.147509994e-21 -2.350308642e-21)
(10 1.297649075e-22 -7.353510517e-23)
(10 4.060009799e-24 -2.300724081e-24)
(10 1.270272517e-25 -7.198373192e-26)
(10 3.974355599e-27 -2.252185607e-27)
(10 1.243473524e-28 -7.046508805e-29)
(10 3.890508449e-30 -2.204671151e-30)
(10 1.217239909e-31 -6.897848307e-32)
(10 3.808430225e-33 -2.158159109e-33)
(10 1.191559747e-34 -6.752324105e-35)
(10 3.728083609e-36 -2.112628333e-36)
(10 1.16642136e-37 -6.609870033e-38)
(10 3.649432069e-39 -2.068058123e-39)
(10 1.141813318e-40 -6.470421321e-41)
(10 3.572439844e-42 -2.024428212e-42)
(10 1.117724433e-43 -6.333914564e-44)
(10 3.497071927e-45 -1.981718763e-45)
(10 1.094143753e-46 -6.200287697e-47)
(10 3.42329405e-48 -1.939910357e-48)
(10 1.071060555e-49 -6.069479961e-50)
(10 3.351072669e-51 -1.898983985e-51)
(10 1.048464345e-52 -5.941431881e-53)
(10 3.280374945e-54 -1.858921038e-54)
(10 1.026344847e-55 -5.816085238e-56)
(10 3.211168734e-57 -1.819703301e-57)
(10 1.004692006e-58 -5.693383038e-59)
(10 3.143422569e-60 -1.781312942e-60)
(10 5.084724381e-17 2.86125096e-15)
)
;

boundaryField
{
    left
    {
        type            dirichlet;
        value           uniform (4 0 0);
    }
    right
    {
        type            dirichlet;
        value           uniform (4 0 0);
    }
    sides
    {
        type            empty;
    }
}


// ************************************************************************* //
