/*--------------------------------*- C++ -*----------------------------------*\
| =========                 |                                                 |
| \\      /  F ield         | foam-extend: Open Source CFD                    |
|  \\    /   O peration     | Version:     4.1                                |
|   \\  /    A nd           | Web:         http://www.foam-extend.org         |
|    \\/     M anipulation  |                                                 |
\*---------------------------------------------------------------------------*/
FoamFile
{
    version     2.0;
    format      ascii;
    class       cellScalarField;
    location    "45.1";
    object      T;
}
// * * * * * * * * * * * * * * * * * * * * * * * * * * * * * * * * * * * * * //

dimensions      [0 0 0 0 1 0 0];

internalField   nonuniform 
100
(
(4 -5.703630593e-17 1.624202108e-17)
(4 -1.665329415e-16 3.080387957e-19)
(4 -1.488710073e-16 1.865857221e-16)
(4 1.030665465e-16 2.027855866e-16)
(4 -4.327267836e-17 -1.277714849e-16)
(4 -3.72530098e-16 7.252073666e-18)
(4 3.404832529e-16 1.383285223e-16)
(4 -4.252412913e-16 4.540470385e-18)
(4 9.223622299e-16 1.335880671e-16)
(4 -1.286274503e-15 -1.652875424e-16)
(4 1.0017927e-17 3.723011526e-17)
(4 4.378360491e-16 5.797405681e-17)
(4 3.633112531e-16 -3.242942949e-17)
(4 7.56357873e-17 7.161175695e-17)
(4 -1.992313198e-16 -1.843083696e-16)
(4 2.509340868e-17 -7.479453712e-17)
(4 2.749278798e-16 1.183341669e-16)
(4 -6.491419262e-16 -4.37721484e-17)
(4 3.434022258e-16 -7.064255835e-17)
(4 3.304819886e-17 5.256053908e-17)
(4 7.874387439e-17 -5.153674768e-17)
(4 5.333293743e-17 2.01993602e-16)
(4 -1.554696366e-16 9.830850023e-17)
(4 -1.585662476e-16 -8.617453941e-17)
(4 -1.568133536e-16 -1.105346131e-16)
(4 -9.634732433e-17 -1.715081818e-16)
(4 -1.180138222e-16 1.369971398e-16)
(4 5.295072086e-17 -1.384580551e-16)
(4 -3.271812624e-16 -3.739663262e-17)
(4 3.859951833e-16 -3.974463123e-17)
(4 -1.445884015e-16 2.074959033e-18)
(4 -7.900493267e-17 -7.890338463e-17)
(4 1.788638527e-16 -1.349980567e-16)
(4 -5.466547229e-16 4.271857448e-17)
(4 4.385252836e-16 6.067835375e-17)
(4 -5.167900463e-16 -4.771620803e-18)
(4 1.142410494e-15 1.687745618e-16)
(4 -1.297099221e-15 4.7796027e-16)
(4 3.885536342e-16 1.131828741e-16)
(4 -6.602143901e-17 1.143426196e-17)
(4 -5.436591719e-17 1.399347599e-16)
(4 1.319426237e-17 1.627235573e-16)
(4 -2.003584482e-16 2.836845769e-16)
(4 -5.791427705e-17 6.104540142e-17)
(4 -4.479317591e-16 6.028367267e-17)
(4 7.297293894e-16 1.010810374e-16)
(4 -9.312383133e-16 6.762484634e-17)
(4 8.75446367e-16 1.043495225e-16)
(4 -9.658472921e-16 1.435582184e-16)
(4 3.314668111e-16 -2.24495818e-17)
(4 2.755406837e-16 1.633205162e-16)
(4 -7.893918224e-18 -9.821845808e-17)
(4 -2.833868235e-16 -6.371895685e-17)
(4 -1.434855135e-16 2.478337813e-16)
(4 -1.919725203e-16 -6.759115281e-17)
(4 5.222872406e-18 -4.336440928e-17)
(4 -1.427951752e-16 5.215190547e-17)
(4 -7.37294032e-17 -4.42411886e-17)
(4 2.116639637e-16 1.508821428e-16)
(4 4.114626266e-15 1.093189951e-15)
(4 2.911654025e-14 1.427931833e-14)
(4 2.537838549e-13 1.062260081e-13)
(4 1.871610315e-12 7.562649204e-13)
(4 1.296695653e-11 5.027749866e-12)
(4 8.395783823e-11 3.112345154e-11)
(4.000000001 5.064175307e-10 1.787880629e-10)
(4.000000003 2.836249227e-09 9.49775991e-10)
(4.000000019 1.470568103e-08 4.651853008e-09)
(4.000000094 7.041579634e-08 2.095613654e-08)
(4.000000433 3.108306651e-07 8.668666789e-08)
(4.00000185 1.26352181e-06 3.289608737e-07)
(4.000007301 4.728068392e-06 1.144900055e-06)
(4.000026626 1.629024708e-05 3.655396304e-06)
(4.000089788 5.171659318e-05 1.071342041e-05)
(4.000280292 0.0001514501114 2.8849902e-05)
(4.000811184 0.0004096787608 7.145598378e-05)
(4.002180139 0.001025243773 0.0001629595842)
(4.005451558 0.002377632881 0.0003425379969)
(4.012708707 0.005118537487 0.0006641961914)
(4.027678367 0.01024680105 0.001188776688)
(4.056439714 0.01910849083 0.00196430445)
(4.107996462 0.03325084877 0.002995458521)
(4.194364837 0.05408076345 0.004210534911)
(4.329794205 0.08234773268 0.005441662935)
(4.528877803 0.1175741836 0.006435734649)
(4.803652453 0.1576461792 0.006905170537)
(5.160241848 0.1987936821 0.006610253002)
(5.595975277 0.2360929953 0.005446087589)
(6.097997312 0.2644336598 0.003498390222)
(6.644059672 0.2796881549 0.001040602937)
(7.205531092 0.2797084692 -0.001531828459)
(7.751928549 0.2648151557 -0.003807238614)
(8.255773826 0.2376289004 -0.005464296364)
(8.696519842 0.2023352307 -0.006342031972)
(9.062672083 0.1636591661 -0.006454167627)
(9.351861033 0.1258842976 -0.005952311988)
(9.569230754 0.09217581864 -0.005060174013)
(9.72488154 0.06431544882 -0.004005928624)
(9.831164526 0.04280482459 -0.002973194716)
(9.900435285 0.0271996832 -0.002078786367)
)
;

boundaryField
{
    left
    {
        type            dirichlet;
        value           uniform (4 0 0);
    }
    right
    {
        type            dirichlet;
        value           uniform (4 0 0);
    }
    sides
    {
        type            empty;
    }
}


// ************************************************************************* //
