/*--------------------------------*- C++ -*----------------------------------*\
| =========                 |                                                 |
| \\      /  F ield         | foam-extend: Open Source CFD                    |
|  \\    /   O peration     | Version:     4.1                                |
|   \\  /    A nd           | Web:         http://www.foam-extend.org         |
|    \\/     M anipulation  |                                                 |
\*---------------------------------------------------------------------------*/
FoamFile
{
    version     2.0;
    format      ascii;
    class       cellScalarField;
    location    "5.8";
    object      T;
}
// * * * * * * * * * * * * * * * * * * * * * * * * * * * * * * * * * * * * * //

dimensions      [0 0 0 0 1 0 0];

internalField   nonuniform 10((4 2.777777423e-12 2.426192263e-12) (4 -1.35245162e-10 -1.104386768e-10) (4.000000002 5.831432599e-09 5.43802125e-09) (4.000000054 4.163018622e-09 -3.7226375e-08) (4.000001031 2.0353674e-06 2.556867629e-06) (4.000044962 5.220712093e-05 1.91898628e-05) (4.000497922 0.0005152824104 0.0004105981523) (4.008789084 0.0108815962 0.005949486182) (4.093478429 0.08967803175 0.02785780689) (4.488049228 0.328609444 0.05424744552));

boundaryField
{
    left
    {
        type            dirichlet;
        value           uniform (4 0 0);
    }
    right
    {
        type            dirichlet;
        value           uniform (4 0 0);
    }
    sides
    {
        type            empty;
    }
}


// ************************************************************************* //
