/*--------------------------------*- C++ -*----------------------------------*\
| =========                 |                                                 |
| \\      /  F ield         | foam-extend: Open Source CFD                    |
|  \\    /   O peration     | Version:     4.1                                |
|   \\  /    A nd           | Web:         http://www.foam-extend.org         |
|    \\/     M anipulation  |                                                 |
\*---------------------------------------------------------------------------*/
FoamFile
{
    version     2.0;
    format      ascii;
    class       cellScalarField;
    location    "2.7";
    object      T;
}
// * * * * * * * * * * * * * * * * * * * * * * * * * * * * * * * * * * * * * //

dimensions      [0 0 0 0 1 0 0];

internalField   nonuniform 10((3.999999977 6.031928474e-06 1.969210898e-05) (4.0003559 0.0002943100936 -0.0001697818698) (4.002656294 0.004361049788 0.009440789153) (4.165072901 0.2190035449 0.08979073321) (5.239954427 0.8846814391 0.09623783053) (7.351342841 1.098409274 -0.05702940817) (9.081227388 0.5894309625 -0.09117201131) (9.795337519 0.1688119969 -0.03758436387) (9.968196248 0.03056907223 -0.008194530342) (9.996247219 0.003985493383 -0.001194083738));

boundaryField
{
    left
    {
        type            dirichlet;
        value           uniform (4 0 0);
    }
    right
    {
        type            dirichlet;
        value           uniform (4 0 0);
    }
    sides
    {
        type            empty;
    }
}


// ************************************************************************* //
