/*--------------------------------*- C++ -*----------------------------------*\
| =========                 |                                                 |
| \\      /  F ield         | foam-extend: Open Source CFD                    |
|  \\    /   O peration     | Version:     4.1                                |
|   \\  /    A nd           | Web:         http://www.foam-extend.org         |
|    \\/     M anipulation  |                                                 |
\*---------------------------------------------------------------------------*/
FoamFile
{
    version     2.0;
    format      ascii;
    class       cellScalarField;
    location    "30.9";
    object      T;
}
// * * * * * * * * * * * * * * * * * * * * * * * * * * * * * * * * * * * * * //

dimensions      [0 0 0 0 1 0 0];

internalField   nonuniform 
100
(
(4 -5.703630593e-17 1.624202108e-17)
(4 -4.490310778e-17 1.116646994e-16)
(4 -2.519148452e-16 8.466780599e-17)
(4 -6.219716517e-17 1.956377016e-17)
(4 1.371206035e-16 1.572425242e-16)
(4 -2.613632529e-16 -5.355210916e-18)
(4 2.793061548e-16 2.928043949e-16)
(4 -5.158012925e-16 -5.837837521e-17)
(4 8.666226325e-16 1.768805693e-16)
(4 -1.27261411e-15 4.111646753e-18)
(4 2.643286578e-16 1.743216906e-16)
(4 -2.890453053e-16 7.324553247e-19)
(4 1.046916096e-15 -2.380951048e-16)
(4 -6.638875043e-16 1.205732905e-16)
(4 2.882848039e-16 -1.107074284e-16)
(4 3.71514368e-18 1.522996547e-17)
(4 -1.228825785e-16 4.19394998e-18)
(4 -2.373743597e-17 -1.70680436e-17)
(4 4.230665873e-17 3.506657873e-17)
(4 -2.142931529e-16 5.104221794e-17)
(4 -9.414155976e-17 7.429539535e-18)
(4 1.283591009e-16 -7.69750295e-17)
(4 -2.983106685e-17 -6.514341077e-17)
(4 -1.215804889e-16 -1.474946064e-16)
(4 8.820025444e-17 -5.230652136e-17)
(4 -3.751896442e-17 1.638208914e-16)
(4 2.780903064e-17 -3.269872657e-17)
(4 -1.218983054e-16 -8.596858854e-17)
(4 -3.574927337e-16 -7.479040253e-17)
(4 5.006085499e-16 -8.923376785e-17)
(4 -1.714328794e-17 1.259205288e-16)
(4 6.607758197e-17 1.711982828e-16)
(4 -1.348274207e-16 3.026076601e-17)
(4 -3.08908829e-16 8.649428878e-17)
(4 9.451549038e-16 6.416054966e-17)
(4 -1.061811244e-15 1.604325835e-16)
(4 4.863157639e-15 2.987537837e-15)
(4 6.185675945e-14 3.323281462e-14)
(4 6.768818903e-13 3.34651483e-13)
(4 6.699932957e-12 3.199599191e-12)
(4 6.173076711e-11 2.826470911e-11)
(4.000000001 5.252472419e-10 2.294250411e-10)
(4.000000004 4.102724588e-09 1.69990885e-09)
(4.000000032 2.922955925e-08 1.140872357e-08)
(4.000000216 1.884810964e-07 6.871546817e-08)
(4.000001315 1.090837905e-06 3.679968445e-07)
(4.000007177 5.6241282e-06 1.739431788e-06)
(4.000034978 2.569924248e-05 7.224613577e-06)
(4.000151871 0.0001038301976 2.632378958e-05)
(4.000587251 0.0003709226728 8.417655788e-05)
(4.002025389 0.001173766539 0.0002366285144)
(4.006248491 0.003299790716 0.000586049984)
(4.01730807 0.008270549958 0.001281570499)
(4.043229951 0.01855170882 0.002478689294)
(4.097808593 0.03738701528 0.004242988433)
(4.201420875 0.06795213337 0.006421866605)
(4.379410622 0.111797195 0.008560892085)
(4.657046599 0.1670827935 0.009960381265)
(5.051581319 0.2275911145 0.009910060682)
(5.563950279 0.2834483345 0.00801995774)
(6.173848072 0.3237320066 0.004468422943)
(6.841160697 0.340031507 4.082129888e-06)
(7.514072882 0.3293359017 -0.004323976098)
(8.141040725 0.2948841012 -0.007568813966)
(8.68209172 0.2446856756 -0.009210492161)
(9.115539973 0.1885882333 -0.009258066526)
(9.438611445 0.1353098019 -0.008125108736)
(9.663122855 0.09056743236 -0.006388848481)
(9.808882165 0.0566664155 -0.004567395569)
(9.897462725 0.03320774588 -0.002996999641)
(9.947947472 0.01826127571 -0.00181719427)
(9.974980121 0.00944039869 -0.001023382848)
(9.988603484 0.004595998638 -0.0005375048731)
(9.995076155 0.002110754589 -0.0002641957468)
(9.997980173 0.0009159641979 -0.0001218861341)
(9.999212492 0.0003761791512 -5.291803106e-05)
(9.999707857 0.000146439435 -2.167186679e-05)
(9.999896768 5.411530837e-05 -8.390080965e-06)
(9.999965215 1.901137579e-05 -3.076636272e-06)
(9.999988811 6.358466931e-06 -1.070609387e-06)
(9.99999656 2.027370518e-06 -3.541494485e-07)
(9.999998988 6.170705903e-07 -1.115466427e-07)
(9.999999715 1.795229807e-07 -3.350564869e-08)
(9.999999923 4.998445028e-08 -9.61204781e-09)
(9.99999998 1.333551401e-08 -2.637338647e-09)
(9.999999995 3.413179441e-09 -6.930368777e-10)
(9.999999999 8.390408135e-10 -1.746438254e-10)
(10 1.983198339e-10 -4.225724678e-11)
(10 4.512126055e-11 -9.82806017e-12)
(10 9.893334535e-12 -2.201640933e-12)
(10 2.089675435e-12 -4.737928243e-13)
(10 4.247685556e-13 -9.83612904e-14)
(10 8.225267026e-14 -2.014872822e-14)
(10 1.760641834e-14 -3.147070002e-15)
(10 6.500030626e-15 -2.708944374e-15)
(10 1.840887575e-16 2.545025994e-16)
(10 -4.98314351e-16 -9.437821315e-17)
(10 -6.751885757e-17 2.800212105e-16)
(10 -1.052446392e-15 5.654826147e-16)
(10 -1.40104076e-15 4.38671326e-15)
)
;

boundaryField
{
    left
    {
        type            dirichlet;
        value           uniform (4 0 0);
    }
    right
    {
        type            dirichlet;
        value           uniform (4 0 0);
    }
    sides
    {
        type            empty;
    }
}


// ************************************************************************* //
