/*--------------------------------*- C++ -*----------------------------------*\
| =========                 |                                                 |
| \\      /  F ield         | foam-extend: Open Source CFD                    |
|  \\    /   O peration     | Version:     4.1                                |
|   \\  /    A nd           | Web:         http://www.foam-extend.org         |
|    \\/     M anipulation  |                                                 |
\*---------------------------------------------------------------------------*/
FoamFile
{
    version     2.0;
    format      ascii;
    class       cellScalarField;
    location    "1";
    object      T;
}
// * * * * * * * * * * * * * * * * * * * * * * * * * * * * * * * * * * * * * //

dimensions      [0 0 0 0 1 0 0];

internalField   nonuniform 10((4.024003932 0.06953876791 0.1268045891) (5.479418364 1.560083322 0.1764401017) (8.657511072 1.181153451 -0.2437082876) (9.850044269 0.1746845261 -0.05605894557) (9.989612306 0.01346246913 -0.004884052111) (9.999437462 0.0007729739096 -0.00029868211) (9.99997375 3.748594807e-05 -1.508880931e-05) (9.999998891 1.628308321e-06 -6.751325869e-07) (9.999999956 6.542775278e-08 -2.775352213e-08) (9.999999998 2.479940021e-09 -1.07117591e-09));

boundaryField
{
    left
    {
        type            dirichlet;
        value           uniform (4 0 0);
    }
    right
    {
        type            dirichlet;
        value           uniform (4 0 0);
    }
    sides
    {
        type            empty;
    }
}


// ************************************************************************* //
