/*--------------------------------*- C++ -*----------------------------------*\
| =========                 |                                                 |
| \\      /  F ield         | foam-extend: Open Source CFD                    |
|  \\    /   O peration     | Version:     4.1                                |
|   \\  /    A nd           | Web:         http://www.foam-extend.org         |
|    \\/     M anipulation  |                                                 |
\*---------------------------------------------------------------------------*/
FoamFile
{
    version     2.0;
    format      ascii;
    class       cellScalarField;
    location    "4";
    object      T;
}
// * * * * * * * * * * * * * * * * * * * * * * * * * * * * * * * * * * * * * //

dimensions      [0 0 0 0 1 0 0];

internalField   nonuniform 
100
(
(4.000000012 3.063651443e-08 1.326877508e-08)
(3.999999842 -8.293941832e-07 -1.647024782e-07)
(4.000017161 3.644196846e-05 2.381181584e-05)
(4.000301842 0.0001748822785 4.74822913e-05)
(4.004942634 0.007337627203 0.006746668505)
(4.107633972 0.1243336846 0.04687442034)
(4.717677972 0.5221006095 0.08160357859)
(6.192195508 0.9105126228 0.02052918085)
(7.989673732 0.8170185675 -0.05784812401)
(9.243981532 0.4297510603 -0.05997861132)
(9.793839164 0.1463303226 -0.02797999811)
(9.957621456 0.03504561063 -0.008074179795)
(9.993139411 0.006327438188 -0.001648387478)
(9.999089319 0.0009105307958 -0.0002586983507)
(9.999897463 0.0001090506847 -3.304368831e-05)
(9.999989936 1.123723953e-05 -3.578546835e-06)
(9.99999912 1.022094723e-06 -3.386368786e-07)
(9.99999993 8.370422601e-08 -2.864446726e-08)
(9.999999995 6.269214417e-09 -2.204083007e-09)
(10 4.348071577e-10 -1.564084185e-10)
(10 2.821126791e-11 -1.035077658e-11)
(10 1.721853518e-12 -6.435769522e-13)
(10 1.006920793e-13 -3.821927884e-14)
(10 6.262401486e-15 -1.862852164e-15)
(10 -2.06549864e-15 4.710384233e-16)
(10 8.688045142e-16 -1.008111629e-15)
(10 -3.615369012e-16 -5.8184238e-16)
(10 3.212428123e-17 -3.355276452e-16)
(10 -3.773034959e-16 3.930558852e-18)
(10 1.823417654e-16 4.200083338e-17)
(10 3.637075862e-16 5.332171854e-17)
(10 -1.044283712e-16 -2.481900201e-16)
(10 -4.378085321e-18 4.543239444e-16)
(10 -1.415730352e-16 1.269154984e-16)
(10 -6.831731613e-17 2.073895402e-16)
(10 -1.581892434e-16 4.292299443e-17)
(10 -7.514857882e-17 -4.617159996e-16)
(10 2.315638462e-16 -3.373748309e-16)
(10 1.914211889e-16 -5.530710703e-16)
(10 -3.754423761e-17 -3.116279249e-16)
(10 4.619326535e-17 3.201979651e-16)
(10 -4.965320513e-17 -5.651813036e-18)
(10 3.232626165e-16 3.50258352e-16)
(10 -4.601928857e-16 -7.640301957e-17)
(10 2.618813494e-16 2.949202433e-17)
(10 -1.365865064e-16 -1.744219838e-17)
(10 2.188364463e-16 -5.564608176e-16)
(10 1.000862123e-15 -5.078880214e-16)
(10 -1.354184949e-16 7.67388769e-17)
(10 -4.236895985e-18 2.400961845e-18)
(10 -1.325615648e-19 7.511991338e-20)
(10 -4.147510002e-21 2.350308647e-21)
(10 -1.297649077e-22 7.353510527e-23)
(10 -4.060009803e-24 2.300724083e-24)
(10 -1.270272518e-25 7.198373197e-26)
(10 -3.974355601e-27 2.252185608e-27)
(10 -1.243473524e-28 7.046508807e-29)
(10 -3.890508449e-30 2.204671151e-30)
(10 -1.217239909e-31 6.897848307e-32)
(10 -3.808430225e-33 2.158159109e-33)
(10 -1.191559747e-34 6.752324105e-35)
(10 -3.728083609e-36 2.112628333e-36)
(10 -1.16642136e-37 6.609870033e-38)
(10 -3.649432069e-39 2.068058123e-39)
(10 -1.141813318e-40 6.470421321e-41)
(10 -3.572439844e-42 2.024428212e-42)
(10 -1.117724433e-43 6.333914564e-44)
(10 -3.497071927e-45 1.981718763e-45)
(10 -1.094143753e-46 6.200287697e-47)
(10 -3.42329405e-48 1.939910357e-48)
(10 -1.071060555e-49 6.069479961e-50)
(10 -3.351072669e-51 1.898983985e-51)
(10 -1.048464345e-52 5.941431881e-53)
(10 -3.280374945e-54 1.858921038e-54)
(10 -1.026344847e-55 5.816085238e-56)
(10 -3.211168734e-57 1.819703301e-57)
(10 -1.004692006e-58 5.693383038e-59)
(10 -3.143422569e-60 1.781312942e-60)
(10 -9.834959756e-62 5.573269491e-62)
(10 -3.077105648e-63 1.743732507e-63)
(10 -9.627471188e-65 5.455689985e-65)
(10 -3.012187818e-66 1.706944907e-66)
(10 -9.424360014e-68 5.340591059e-68)
(10 -2.948639562e-69 1.670933417e-69)
(10 -9.225533886e-71 5.22792038e-71)
(10 -2.886431986e-72 1.635681663e-72)
(10 -9.030902401e-74 5.117626719e-74)
(10 -2.825536806e-75 1.601173616e-75)
(10 -8.840377063e-77 5.009659927e-77)
(10 -2.765926334e-78 1.567393587e-78)
(10 -8.653871244e-80 4.903970914e-80)
(10 -2.707573465e-81 1.534326216e-81)
(10 -8.471300141e-83 4.800511623e-83)
(10 -2.650451667e-84 1.501956467e-84)
(10 -8.292580735e-86 4.69923501e-86)
(10 -2.594534964e-87 1.470269621e-87)
(10 -8.117631755e-89 4.600095018e-89)
(10 -2.539797926e-90 1.439251267e-90)
(10 -7.946373632e-92 4.503046558e-92)
(10 -1.833740109e-15 3.764775521e-15)
)
;

boundaryField
{
    left
    {
        type            dirichlet;
        value           uniform (4 0 0);
    }
    right
    {
        type            dirichlet;
        value           uniform (4 0 0);
    }
    sides
    {
        type            empty;
    }
}


// ************************************************************************* //
