/*--------------------------------*- C++ -*----------------------------------*\
| =========                 |                                                 |
| \\      /  F ield         | foam-extend: Open Source CFD                    |
|  \\    /   O peration     | Version:     4.1                                |
|   \\  /    A nd           | Web:         http://www.foam-extend.org         |
|    \\/     M anipulation  |                                                 |
\*---------------------------------------------------------------------------*/
FoamFile
{
    version     2.0;
    format      ascii;
    class       cellScalarField;
    location    "30.1";
    object      T;
}
// * * * * * * * * * * * * * * * * * * * * * * * * * * * * * * * * * * * * * //

dimensions      [0 0 0 0 1 0 0];

internalField   nonuniform 
100
(
(4 -5.703630593e-17 1.624202108e-17)
(4 3.613228733e-18 1.651376394e-16)
(4 -5.201864606e-17 2.043325789e-16)
(4 -1.305478585e-17 -1.022827079e-17)
(4 -4.688855647e-18 -1.112535263e-16)
(4 -4.540063451e-16 -9.885537417e-17)
(4 3.819210436e-16 -1.26948646e-16)
(4 -3.044271422e-16 -4.041272088e-17)
(4 5.767050922e-16 8.665932834e-17)
(4 -1.200636417e-15 1.918342904e-16)
(4 -6.778664105e-17 -3.346685939e-17)
(4 3.917991274e-16 -1.711326218e-16)
(4 6.20675903e-16 -1.595194011e-16)
(4 -1.530216275e-16 3.230153968e-17)
(4 6.402488531e-18 7.351107001e-17)
(4 -1.961889658e-17 1.184822538e-16)
(4 1.618810872e-17 -8.415982051e-17)
(4 -1.02608827e-16 6.898310075e-17)
(4 2.032845892e-16 5.013335273e-17)
(4 -5.281171903e-17 4.788282109e-17)
(4 9.808485205e-17 7.512465698e-17)
(4 8.329787786e-17 9.15530976e-17)
(4 1.305580019e-17 -6.265233667e-17)
(4 -1.792382723e-16 1.281791246e-17)
(4 1.665232283e-21 1.020236106e-16)
(4 -5.628250304e-17 1.76256886e-17)
(4 4.976918226e-17 -1.410708095e-16)
(4 1.063129027e-16 -1.157543178e-16)
(4 -7.033861276e-16 -4.239410331e-16)
(4 1.234578499e-15 -2.066326538e-16)
(4 -3.574038036e-16 4.583462134e-16)
(4 2.98210891e-18 -3.677126331e-17)
(4 1.529724224e-16 -2.75027166e-17)
(4 -4.56034521e-16 -8.992745594e-17)
(4 8.065301215e-16 1.161367507e-16)
(4 1.022111131e-14 6.408310465e-15)
(4 1.281547764e-13 6.603193794e-14)
(4 1.362408255e-12 6.760726002e-13)
(4 1.352504453e-11 6.456712412e-12)
(4 1.244094763e-10 5.686962845e-11)
(4.000000001 1.054155736e-09 4.589518554e-10)
(4.000000009 8.177447288e-09 3.370612341e-09)
(4.000000064 5.767563253e-08 2.233737101e-08)
(4.000000424 3.66758239e-07 1.322354496e-07)
(4.000002534 2.083910541e-06 6.925032429e-07)
(4.000013555 1.050000587e-05 3.184915131e-06)
(4.000064511 4.66892604e-05 1.281298708e-05)
(4.000272573 0.0001828829985 4.504153417e-05)
(4.00102274 0.0006314531374 0.0001384808278)
(4.003415023 0.001926372393 0.0003731292825)
(4.010182161 0.005209942372 0.000883195383)
(4.027222193 0.0125403134 0.001840422452)
(4.06556444 0.02697378675 0.003381036787)
(4.14296238 0.0520606141 0.005476083358)
(4.283665735 0.09051874953 0.007801785126)
(4.514885306 0.1423263546 0.009715363769)
(4.859583732 0.203105819 0.01042208792)
(5.327340374 0.2639595268 0.009309020587)
(5.906982402 0.3134261912 0.006283756695)
(6.564908966 0.3410698909 0.001907935575)
(7.250903921 0.3411275522 -0.002781894129)
(7.909734847 0.3144450645 -0.006681971038)
(8.494068656 0.2678283943 -0.009035828988)
(8.973860185 0.211313469 -0.009648231835)
(9.339429916 0.1548039409 -0.008831593137)
(9.598484353 0.1055363036 -0.007170792012)
(9.769584955 0.06710065987 -0.005259127751)
(9.875133272 0.03987122241 -0.003523381772)
(9.936066763 0.02218548052 -0.002173028798)
(9.969050535 0.01158222231 -0.001240886052)
(9.985822725 0.005683774435 -0.0006590716319)
(9.993848804 0.002626543712 -0.0003268109521)
(9.997469525 0.001144961414 -0.0001517803021)
(9.999011917 0.0004716144408 -6.620789145e-05)
(9.999633375 0.0001838578921 -2.719397276e-05)
(9.999870583 6.794596906e-05 -1.05414054e-05)
(9.999956489 2.383954556e-05 -3.864588774e-06)
(9.99998605 7.953015721e-06 -1.342576047e-06)
(9.99999573 2.526346187e-06 -4.427960538e-07)
(9.999998751 7.652265456e-07 -1.388834733e-07)
(9.99999965 2.213167668e-07 -4.149468144e-08)
(9.999999906 6.119827839e-08 -1.182789296e-08)
(9.999999976 1.620021905e-08 -3.221379202e-09)
(9.999999994 4.110541705e-09 -8.394869296e-10)
(9.999999999 1.000916112e-09 -2.096101683e-10)
(10 2.34166172e-10 -5.021446147e-11)
(10 5.2694202e-11 -1.155480503e-11)
(10 1.141641749e-11 -2.556645553e-12)
(10 2.381086806e-12 -5.446482062e-13)
(10 4.820175551e-13 -1.132192111e-13)
(10 9.168930768e-14 -2.126993676e-14)
(10 1.860594446e-14 -3.511666494e-15)
(10 7.006505425e-15 -2.374489478e-15)
(10 -3.942798703e-16 2.324599256e-16)
(10 3.453284026e-16 3.956432547e-17)
(10 -5.507663252e-16 2.187840738e-18)
(10 1.791865268e-16 -3.650053859e-16)
(10 -3.552316861e-17 -1.774307725e-16)
(10 -6.368361159e-17 -1.490210019e-17)
(10 -7.272167558e-16 4.629311031e-15)
)
;

boundaryField
{
    left
    {
        type            dirichlet;
        value           uniform (4 0 0);
    }
    right
    {
        type            dirichlet;
        value           uniform (4 0 0);
    }
    sides
    {
        type            empty;
    }
}


// ************************************************************************* //
