/*--------------------------------*- C++ -*----------------------------------*\
| =========                 |                                                 |
| \\      /  F ield         | foam-extend: Open Source CFD                    |
|  \\    /   O peration     | Version:     4.1                                |
|   \\  /    A nd           | Web:         http://www.foam-extend.org         |
|    \\/     M anipulation  |                                                 |
\*---------------------------------------------------------------------------*/
FoamFile
{
    version     2.0;
    format      ascii;
    class       cellScalarField;
    location    "4";
    object      T;
}
// * * * * * * * * * * * * * * * * * * * * * * * * * * * * * * * * * * * * * //

dimensions      [0 0 0 0 1 0 0];

internalField   nonuniform 10((4.000000012 3.063651443e-08 1.326877508e-08) (3.999999842 -8.293941832e-07 -1.647024782e-07) (4.000017161 3.644196846e-05 2.381181584e-05) (4.000301842 0.0001748822785 4.74822913e-05) (4.004942634 0.007337627203 0.006746668505) (4.107633972 0.1243336846 0.04687442034) (4.717677972 0.5221006095 0.08160357859) (6.192195508 0.9105126228 0.02052918085) (7.989673732 0.8170185675 -0.05784812401) (9.243981532 0.4297510603 -0.05997861132));

boundaryField
{
    left
    {
        type            dirichlet;
        value           uniform (4 0 0);
    }
    right
    {
        type            dirichlet;
        value           uniform (4 0 0);
    }
    sides
    {
        type            empty;
    }
}


// ************************************************************************* //
