/*--------------------------------*- C++ -*----------------------------------*\
| =========                 |                                                 |
| \\      /  F ield         | foam-extend: Open Source CFD                    |
|  \\    /   O peration     | Version:     4.1                                |
|   \\  /    A nd           | Web:         http://www.foam-extend.org         |
|    \\/     M anipulation  |                                                 |
\*---------------------------------------------------------------------------*/
FoamFile
{
    version     2.0;
    format      ascii;
    class       cellScalarField;
    location    "4.2";
    object      T;
}
// * * * * * * * * * * * * * * * * * * * * * * * * * * * * * * * * * * * * * //

dimensions      [0 0 0 0 1 0 0];

internalField   nonuniform 
100
(
(4.000000002 7.637052515e-09 9.054468905e-09)
(4.000000064 -1.616257993e-07 -2.415774513e-07)
(4.000003182 9.232068136e-06 1.151171319e-05)
(4.000165333 0.0001541693023 1.536134705e-05)
(4.001676473 0.002059411808 0.00242561388)
(4.045807687 0.05851552194 0.02775857525)
(4.407338542 0.3433974466 0.07367479431)
(5.542740414 0.784302964 0.05183218274)
(7.290911361 0.8947010513 -0.03171263274)
(8.805459363 0.5860309661 -0.06450033642)
(9.617454124 0.2435714793 -0.04054769972)
(9.908416607 0.06972072758 -0.01461457027)
(9.982954233 0.01473228718 -0.00357926172)
(9.997434611 0.002433855769 -0.0006549382754)
(9.999676773 0.0003291297474 -9.543878877e-05)
(9.999964907 3.776384307e-05 -1.15924705e-05)
(9.999996639 3.78046998e-06 -1.213799251e-06)
(9.999999711 3.374786155e-07 -1.12366654e-07)
(9.999999977 2.733038623e-08 -9.377952341e-09)
(9.999999998 2.035644632e-09 -7.164487474e-10)
(10 1.410051574e-10 -5.071618887e-11)
(10 9.163404534e-12 -3.360114914e-12)
(10 5.628702237e-13 -2.095765117e-13)
(10 3.310302022e-14 -1.167290015e-14)
(10 -1.048524733e-15 -4.943201305e-16)
(10 2.443852638e-15 -2.718582321e-16)
(10 -4.376284061e-17 1.01824489e-16)
(10 -4.181874591e-16 -4.221090197e-16)
(10 -1.800855187e-17 2.29840607e-16)
(10 9.662946436e-17 3.255251819e-16)
(10 -5.742613293e-17 -1.33179638e-16)
(10 -1.361836289e-16 9.244202052e-17)
(10 3.160796727e-16 -6.077717799e-17)
(10 -2.501970814e-16 1.100689945e-16)
(10 -1.867680946e-16 3.304148619e-16)
(10 -3.469427591e-16 -5.384722085e-17)
(10 -4.079744101e-16 -3.055216928e-17)
(10 5.943673907e-16 -4.712121572e-16)
(10 -6.47703734e-18 1.052379419e-16)
(10 -1.593672342e-16 -5.75018233e-16)
(10 3.610322598e-16 -1.397187575e-16)
(10 -5.959907581e-17 -9.05273771e-17)
(10 3.634839453e-16 -1.278542971e-16)
(10 -1.675796112e-16 -3.525298529e-17)
(10 3.711401597e-16 3.213878139e-16)
(10 -4.577580063e-16 -7.78076163e-17)
(10 2.61971127e-16 2.944102588e-17)
(10 -1.365836193e-16 -1.744382481e-17)
(10 2.188365319e-16 -5.564608655e-16)
(10 1.000862126e-15 -5.078880228e-16)
(10 -1.354184948e-16 7.673887687e-17)
(10 -4.236895983e-18 2.400961845e-18)
(10 -1.325615648e-19 7.511991335e-20)
(10 -4.147510002e-21 2.350308647e-21)
(10 -1.297649077e-22 7.353510526e-23)
(10 -4.060009803e-24 2.300724083e-24)
(10 -1.270272518e-25 7.198373196e-26)
(10 -3.974355601e-27 2.252185608e-27)
(10 -1.243473524e-28 7.046508807e-29)
(10 -3.890508449e-30 2.204671151e-30)
(10 -1.217239909e-31 6.897848307e-32)
(10 -3.808430225e-33 2.158159109e-33)
(10 -1.191559747e-34 6.752324105e-35)
(10 -3.728083609e-36 2.112628334e-36)
(10 -1.16642136e-37 6.609870033e-38)
(10 -3.649432069e-39 2.068058123e-39)
(10 -1.141813318e-40 6.470421321e-41)
(10 -3.572439844e-42 2.024428212e-42)
(10 -1.117724433e-43 6.333914564e-44)
(10 -3.497071927e-45 1.981718763e-45)
(10 -1.094143753e-46 6.200287697e-47)
(10 -3.42329405e-48 1.939910357e-48)
(10 -1.071060555e-49 6.069479961e-50)
(10 -3.351072669e-51 1.898983985e-51)
(10 -1.048464345e-52 5.941431881e-53)
(10 -3.280374945e-54 1.858921038e-54)
(10 -1.026344847e-55 5.816085238e-56)
(10 -3.211168734e-57 1.819703301e-57)
(10 -1.004692006e-58 5.693383038e-59)
(10 -3.143422569e-60 1.781312942e-60)
(10 -9.834959756e-62 5.573269491e-62)
(10 -3.077105648e-63 1.743732507e-63)
(10 -9.627471188e-65 5.455689985e-65)
(10 -3.012187818e-66 1.706944907e-66)
(10 -9.424360014e-68 5.340591059e-68)
(10 -2.948639562e-69 1.670933417e-69)
(10 -9.225533886e-71 5.22792038e-71)
(10 -2.886431987e-72 1.635681663e-72)
(10 -9.030902401e-74 5.117626719e-74)
(10 -2.825536807e-75 1.601173617e-75)
(10 -8.840377065e-77 5.009659929e-77)
(10 -2.765926335e-78 1.567393588e-78)
(10 -8.65387125e-80 4.903970918e-80)
(10 -2.707573468e-81 1.534326218e-81)
(10 -8.471300156e-83 4.800511632e-83)
(10 -2.650451674e-84 1.501956472e-84)
(10 -8.29258077e-86 4.69923503e-86)
(10 -2.59453498e-87 1.470269631e-87)
(10 -8.117631831e-89 4.600095063e-89)
(10 -1.616437385e-15 4.232586801e-15)
)
;

boundaryField
{
    left
    {
        type            dirichlet;
        value           uniform (4 0 0);
    }
    right
    {
        type            dirichlet;
        value           uniform (4 0 0);
    }
    sides
    {
        type            empty;
    }
}


// ************************************************************************* //
