/*--------------------------------*- C++ -*----------------------------------*\
| =========                 |                                                 |
| \\      /  F ield         | foam-extend: Open Source CFD                    |
|  \\    /   O peration     | Version:     4.1                                |
|   \\  /    A nd           | Web:         http://www.foam-extend.org         |
|    \\/     M anipulation  |                                                 |
\*---------------------------------------------------------------------------*/
FoamFile
{
    version     2.0;
    format      ascii;
    class       cellScalarField;
    location    "43.5";
    object      T;
}
// * * * * * * * * * * * * * * * * * * * * * * * * * * * * * * * * * * * * * //

dimensions      [0 0 0 0 1 0 0];

internalField   nonuniform 
100
(
(4 -5.703630593e-17 1.624202108e-17)
(4 -8.953651034e-17 2.195398308e-16)
(4 -5.747496439e-18 1.165423088e-16)
(4 -2.768794934e-16 2.007849629e-16)
(4 -1.468283186e-16 5.623778886e-17)
(4 -2.639498861e-16 6.719268487e-17)
(4 2.70643946e-16 -2.847025601e-17)
(4 -5.2177496e-16 2.683282303e-16)
(4 7.288757668e-16 -5.547061391e-17)
(4 -1.177879474e-15 -9.188089691e-17)
(4 1.562839937e-16 -1.468329259e-16)
(4 1.954285824e-16 -3.137609022e-17)
(4 8.727949842e-16 -9.217603608e-17)
(4 -8.520782011e-17 2.365352639e-16)
(4 9.63550069e-17 2.574190617e-16)
(4 -4.216586901e-17 1.703615933e-16)
(4 -1.346704009e-16 3.033496259e-16)
(4 -6.112577686e-17 1.957408593e-17)
(4 -1.827075759e-16 6.845352648e-17)
(4 2.160403437e-16 -8.827724015e-17)
(4 -2.127650001e-16 -2.703012154e-18)
(4 9.088186054e-17 -4.35644594e-17)
(4 -4.620727804e-17 -1.611537962e-16)
(4 2.881879349e-17 -1.223497285e-16)
(4 -2.393701113e-17 -4.265264584e-17)
(4 1.942880509e-16 -1.228288526e-16)
(4 -1.869284147e-16 -1.15981077e-16)
(4 -3.207964504e-17 -3.940008041e-17)
(4 -1.904849854e-16 2.011235736e-16)
(4 -1.115970332e-16 -2.887033125e-16)
(4 5.467444014e-16 -6.083245985e-17)
(4 -1.29494167e-16 8.312670901e-18)
(4 -9.275526368e-17 -3.34723302e-17)
(4 -3.18458977e-16 -1.213134167e-16)
(4 4.51396177e-16 6.082897138e-17)
(4 -4.071663543e-16 1.404594527e-16)
(4 6.398936925e-16 2.076600003e-16)
(4 -6.994830269e-16 1.860281229e-16)
(4 2.006952519e-16 1.234044644e-16)
(4 -2.08725438e-17 -2.079788911e-17)
(4 2.10065219e-16 -3.515802871e-17)
(4 -7.700255003e-17 -5.913320938e-17)
(4 -2.45412207e-18 -6.86496869e-17)
(4 -8.02512912e-17 1.233961204e-16)
(4 -2.113105596e-16 8.420192185e-17)
(4 5.665461038e-16 9.342790567e-17)
(4 -5.489124842e-16 -2.321383394e-17)
(4 5.005161123e-16 1.328107887e-17)
(4 -9.079830606e-16 -2.650257015e-16)
(4 5.654000774e-16 -8.707365426e-18)
(4 -1.280988945e-17 3.646767138e-17)
(4 -1.178119449e-16 1.711781628e-16)
(4 5.259519835e-16 6.969114029e-17)
(4 -8.885446393e-16 -3.314371904e-16)
(4 9.4892756e-16 -1.755294663e-17)
(4 -9.025030353e-16 3.658570193e-16)
(4 2.251159058e-15 6.547612489e-16)
(4 1.392736613e-14 7.03988623e-15)
(4 1.276451033e-13 5.624675705e-14)
(4 9.99178568e-13 4.180662569e-13)
(4 7.307158803e-12 2.927524547e-12)
(4 4.985553727e-11 1.912019102e-11)
(4 3.168346718e-10 1.158423221e-10)
(4.000000002 1.868636092e-09 6.485858638e-10)
(4.000000013 1.01926862e-08 3.343658534e-09)
(4.000000066 5.126335324e-08 1.582372911e-08)
(4.000000322 2.371651567e-07 6.858706209e-08)
(4.000001436 1.007705949e-06 2.718967626e-07)
(4.000005904 3.929351015e-06 9.851955653e-07)
(4.000022368 1.406037648e-05 3.262992118e-06)
(4.000078108 4.61969892e-05 9.883797159e-06)
(4.00025165 0.0001395174704 2.740530458e-05)
(4.00074916 0.0003878364641 6.963418161e-05)
(4.002064384 0.0009939894793 0.0001623267572)
(4.005276009 0.002352874287 0.0003475513093)
(4.012532786 0.005153518239 0.0006841029075)
(4.027732834 0.01046439226 0.001238770252)
(4.057300765 0.01973531092 0.002064138716)
(4.110813471 0.03463347246 0.003163808585)
(4.201079257 0.05665701277 0.004454992422)
(4.343236876 0.08655207989 0.005747235353)
(4.552612209 0.1236810529 0.006757606618)
(4.841475802 0.1655923959 0.007171970429)
(5.215371846 0.2080524939 0.006740606338)
(5.670102349 0.2456739541 0.00537470504)
(6.190497237 0.2730440626 0.003201772908)
(6.751668357 0.2860250743 0.0005507042122)
(7.322656059 0.282788204 -0.002133181576)
(7.87155506 0.2642234438 -0.004411733502)
(8.370712952 0.2336047109 -0.005968851051)
(8.800635736 0.1956684527 -0.006676246606)
(9.15175929 0.1554534603 -0.006593999986)
(9.423991954 0.1172777078 -0.005917424737)
(9.624582236 0.08410966563 -0.004899209775)
(9.765197775 0.05740599773 -0.003777474233)
(9.859075279 0.03732516115 -0.002729639036)
(9.918824604 0.02314294796 -0.001857060112)
(9.955113551 0.01369732766 -0.001193676797)
(9.976165924 0.007745858847 -0.0007269539555)
(9.987842568 0.004189147497 -0.0004204343023)
)
;

boundaryField
{
    left
    {
        type            dirichlet;
        value           uniform (4 0 0);
    }
    right
    {
        type            dirichlet;
        value           uniform (4 0 0);
    }
    sides
    {
        type            empty;
    }
}


// ************************************************************************* //
