/*--------------------------------*- C++ -*----------------------------------*\
| =========                 |                                                 |
| \\      /  F ield         | foam-extend: Open Source CFD                    |
|  \\    /   O peration     | Version:     4.1                                |
|   \\  /    A nd           | Web:         http://www.foam-extend.org         |
|    \\/     M anipulation  |                                                 |
\*---------------------------------------------------------------------------*/
FoamFile
{
    version     2.0;
    format      ascii;
    class       cellScalarField;
    location    "1";
    object      T;
}
// * * * * * * * * * * * * * * * * * * * * * * * * * * * * * * * * * * * * * //

dimensions      [0 0 0 0 1 0 0];

internalField   nonuniform 
100
(
(4.99146466 -0.01630540907 0.000148531778)
(4.951223021 -0.0161568889 -1.16076727e-08)
(4.910983194 -0.01615690051 9.071622808e-13)
(4.870743366 -0.01615690051 -9.090050374e-17)
(4.830503538 -0.01615690051 3.263302855e-17)
(4.790263711 -0.01615690051 1.013023335e-16)
(4.750023883 -0.01615690051 3.737378984e-18)
(4.709784055 -0.01615690051 1.515538986e-16)
(4.669544228 -0.01615690051 1.129769707e-17)
(4.6293044 -0.01615690051 3.106229255e-16)
(4.589064572 -0.01615690051 -1.716784575e-17)
(4.548824745 -0.01615690051 -1.360417867e-16)
(4.508584917 -0.01615690051 1.140766456e-16)
(4.468345089 -0.01615690051 -1.042393894e-17)
(4.428105262 -0.01615690051 8.06369343e-17)
(4.387865434 -0.01615690051 9.651279458e-17)
(4.347625606 -0.01615690051 2.023618344e-16)
(4.307385778 -0.01615690051 1.339975652e-16)
(4.267145951 -0.01615690051 1.061777277e-16)
(4.226906123 -0.01615690051 -7.582319077e-17)
(4.186666295 -0.01615690051 -2.340313193e-16)
(4.146426468 -0.01615690051 2.555557853e-16)
(4.10618664 -0.01615690051 -1.186846256e-16)
(4.065946812 -0.01615690051 2.062351696e-16)
(4.025706985 -0.01615690051 -3.635835175e-16)
(3.985467157 -0.01615690051 1.212673519e-16)
(3.945227329 -0.01615690051 -4.380753872e-17)
(3.904987502 -0.01615690051 3.377516174e-17)
(3.864747674 -0.01615690051 -2.705980113e-17)
(3.824507846 -0.01615690051 7.060025842e-18)
(3.784268019 -0.01615690051 6.667510685e-17)
(3.744028191 -0.01615690051 1.405813665e-16)
(3.703788363 -0.01615690051 7.92866879e-17)
(3.663548536 -0.01615690051 1.145384168e-16)
(3.623308708 -0.01615690051 -1.873118061e-17)
(3.58306888 -0.01615690051 6.462398084e-17)
(3.542829053 -0.01615690051 -9.081349389e-17)
(3.502589225 -0.01615690051 1.586734354e-16)
(3.462349397 -0.01615690051 -9.304183807e-17)
(3.42210957 -0.01615690051 2.800922053e-17)
(3.381869742 -0.01615690051 -8.067982256e-18)
(3.341629914 -0.01615690051 8.003748331e-17)
(3.301390087 -0.01615690051 -1.384025466e-16)
(3.261150259 -0.01615690051 2.573701909e-17)
(3.220910431 -0.01615690051 1.593876869e-16)
(3.180670603 -0.01615690051 -6.174561575e-17)
(3.140430776 -0.01615690051 1.073309757e-16)
(3.100190948 -0.01615690051 -5.539581949e-17)
(3.05995112 -0.01615690051 8.071523664e-17)
(3.019711293 -0.01615690051 -1.356699135e-16)
(2.979471465 -0.01615690051 9.293412765e-17)
(2.939231637 -0.01615690051 4.554660596e-17)
(2.89899181 -0.01615690051 -1.012493756e-16)
(2.858751982 -0.01615690051 -1.663484236e-16)
(2.818512154 -0.01615690051 3.188113335e-17)
(2.778272327 -0.01615690051 8.002602211e-18)
(2.738032499 -0.01615690051 -5.341347917e-17)
(2.697792671 -0.01615690051 3.97585068e-17)
(2.657552844 -0.01615690051 3.513003384e-17)
(2.617313016 -0.01615690051 -3.798282865e-17)
(2.577073188 -0.01615690051 -1.698717771e-17)
(2.536833361 -0.01615690051 6.040962582e-17)
(2.496593533 -0.01615690051 2.007897834e-17)
(2.456353705 -0.01615690051 -5.346075469e-17)
(2.416113878 -0.01615690051 3.726246862e-17)
(2.37587405 -0.01615690051 -7.863980175e-17)
(2.335634222 -0.01615690051 4.0692057e-17)
(2.295394395 -0.01615690051 -3.508059411e-18)
(2.255154567 -0.01615690051 -6.684610968e-18)
(2.214914739 -0.01615690051 2.301115613e-17)
(2.174674912 -0.01615690051 -1.957292541e-17)
(2.134435084 -0.01615690051 2.454839286e-17)
(2.094195256 -0.01615690051 -7.367509887e-18)
(2.053955428 -0.01615690051 -4.617426327e-18)
(2.013715601 -0.01615690051 -7.354409012e-19)
(1.973475773 -0.01615690051 2.520920209e-19)
(1.933235945 -0.01615690051 3.864571096e-18)
(1.892996118 -0.01615690051 -3.06897903e-18)
(1.85275629 -0.01615690051 1.138661767e-17)
(1.812516462 -0.01615690051 -4.482328807e-18)
(1.772276635 -0.01615690051 1.480203038e-17)
(1.732036807 -0.01615690051 -1.322683836e-17)
(1.691796979 -0.01615690051 2.195997458e-17)
(1.651557152 -0.01615690051 -2.888553261e-17)
(1.611317324 -0.01615690051 5.86295685e-18)
(1.571077496 -0.01615690051 3.333784076e-17)
(1.530837669 -0.01615690051 -5.74849677e-17)
(1.490597841 -0.01615690051 -2.817372466e-17)
(1.450358013 -0.01615690051 -1.014409369e-17)
(1.410118186 -0.01615690051 6.563106428e-17)
(1.369878358 -0.01615690051 -1.08991183e-16)
(1.32963853 -0.01615690051 -4.169171036e-17)
(1.289398703 -0.01615690051 4.880754683e-17)
(1.249158875 -0.01615690051 -6.147386893e-17)
(1.208919047 -0.01615690051 9.371474982e-17)
(1.16867922 -0.01615690051 -3.38679415e-17)
(1.128439392 -0.01615690051 1.100669918e-16)
(1.088199564 -0.01615690051 3.3314298e-13)
(1.047959736 -0.01615690477 -4.263587485e-09)
(1.007720574 -0.01610235217 5.45568646e-05)
)
;

boundaryField
{
    left
    {
        type            dirichlet;
        value           uniform (5 0 0);
    }
    right
    {
        type            dirichlet;
        value           uniform (1 0 0);
    }
    sides
    {
        type            empty;
    }
}


// ************************************************************************* //
