/*--------------------------------*- C++ -*----------------------------------*\
| =========                 |                                                 |
| \\      /  F ield         | foam-extend: Open Source CFD                    |
|  \\    /   O peration     | Version:     4.1                                |
|   \\  /    A nd           | Web:         http://www.foam-extend.org         |
|    \\/     M anipulation  |                                                 |
\*---------------------------------------------------------------------------*/
FoamFile
{
    version     2.0;
    format      ascii;
    class       volScalarField;
    location    "1";
    object      Tvol;
}
// * * * * * * * * * * * * * * * * * * * * * * * * * * * * * * * * * * * * * //

dimensions      [0 0 0 0 1 0 0];

internalField   nonuniform List<scalar> 
100
(
4.991390394
4.951223027
4.910983194
4.870743366
4.830503538
4.790263711
4.750023883
4.709784055
4.669544228
4.6293044
4.589064572
4.548824745
4.508584917
4.468345089
4.428105262
4.387865434
4.347625606
4.307385778
4.267145951
4.226906123
4.186666295
4.146426468
4.10618664
4.065946812
4.025706985
3.985467157
3.945227329
3.904987502
3.864747674
3.824507846
3.784268019
3.744028191
3.703788363
3.663548536
3.623308708
3.58306888
3.542829053
3.502589225
3.462349397
3.42210957
3.381869742
3.341629914
3.301390087
3.261150259
3.220910431
3.180670603
3.140430776
3.100190948
3.05995112
3.019711293
2.979471465
2.939231637
2.89899181
2.858751982
2.818512154
2.778272327
2.738032499
2.697792671
2.657552844
2.617313016
2.577073188
2.536833361
2.496593533
2.456353705
2.416113878
2.37587405
2.335634222
2.295394395
2.255154567
2.214914739
2.174674912
2.134435084
2.094195256
2.053955428
2.013715601
1.973475773
1.933235945
1.892996118
1.85275629
1.812516462
1.772276635
1.732036807
1.691796979
1.651557152
1.611317324
1.571077496
1.530837669
1.490597841
1.450358013
1.410118186
1.369878358
1.32963853
1.289398703
1.249158875
1.208919047
1.16867922
1.128439392
1.088199564
1.047959738
1.007693296
)
;

boundaryField
{
    left
    {
        type            calculated;
        value           uniform 0;
    }
    right
    {
        type            calculated;
        value           uniform 0;
    }
    sides
    {
        type            empty;
    }
}


// ************************************************************************* //
