/*--------------------------------*- C++ -*----------------------------------*\
| =========                 |                                                 |
| \\      /  F ield         | foam-extend: Open Source CFD                    |
|  \\    /   O peration     | Version:     4.1                                |
|   \\  /    A nd           | Web:         http://www.foam-extend.org         |
|    \\/     M anipulation  |                                                 |
\*---------------------------------------------------------------------------*/
FoamFile
{
    version     2.0;
    format      ascii;
    class       cellScalarField;
    location    "10.8";
    object      T;
}
// * * * * * * * * * * * * * * * * * * * * * * * * * * * * * * * * * * * * * //

dimensions      [0 0 0 0 1 0 0];

internalField   nonuniform 
100
(
(4 -5.703630593e-17 1.624202108e-17)
(4 -1.809475014e-17 -8.677198063e-17)
(4 -1.678378082e-16 1.664653064e-16)
(4 -1.093487069e-16 6.036439526e-17)
(4 7.445821377e-17 2.101654404e-16)
(4 -1.611347277e-15 -2.64314453e-15)
(4 6.342239065e-14 1.104987827e-13)
(4 2.057032247e-12 2.961712839e-13)
(4 2.621085412e-11 3.463716682e-11)
(4.000000001 1.174772175e-09 6.603612626e-10)
(4.000000014 1.554181737e-08 9.988354385e-09)
(4.000000251 3.046822768e-07 1.957496202e-07)
(4.000003901 4.364446588e-06 2.281069267e-06)
(4.000045686 4.827855642e-05 2.52526729e-05)
(4.000487478 0.000510015495 0.0002418582069)
(4.004275391 0.004066262704 0.001515481639)
(4.026879087 0.02162888133 0.005989303255)
(4.119227167 0.07785987689 0.01540771954)
(4.385742999 0.1978366871 0.02631524984)
(4.948904502 0.3689639512 0.02906425991)
(5.847791526 0.5215732129 0.01698038863)
(6.960134374 0.5737907826 -0.004262376056)
(8.05092519 0.5022261316 -0.02130614132)
(8.914682598 0.356466465 -0.02613392931)
(9.476234742 0.2086429036 -0.02102133634)
(9.780467361 0.1022378766 -0.01280421712)
(9.919700522 0.04252283894 -0.006258088292)
(9.974206731 0.01520313223 -0.002536922454)
(9.992672538 0.004727394696 -0.0008727088018)
(9.998145331 0.001292357309 -0.0002592704093)
(9.999578632 0.0003137254593 -6.748404741e-05)
(9.999913449 6.825216963e-05 -1.557825501e-05)
(9.999983815 1.341995027e-05 -3.223394783e-06)
(9.999997227 2.403329617e-06 -6.034477179e-07)
(9.999999562 3.947973464e-07 -1.030608856e-07)
(9.999999936 5.987337121e-08 -1.617644982e-08)
(9.999999991 8.432216964e-09 -2.348971036e-09)
(9.999999999 1.108714553e-09 -3.174330623e-10)
(10 1.367633043e-10 -4.013285351e-11)
(10 1.590304336e-11 -4.771373677e-12)
(10 1.748017636e-12 -5.352091919e-13)
(10 1.799732822e-13 -5.690093005e-14)
(10 1.719075571e-14 -6.577838572e-15)
(10 -3.581828008e-17 3.59930977e-16)
(10 -2.455774533e-16 2.352262152e-16)
(10 -9.033134859e-17 1.204720536e-16)
(10 -1.617680189e-16 1.745442346e-16)
(10 -1.418698848e-16 -1.544191537e-16)
(10 8.959478627e-17 4.846008596e-16)
(10 -8.4585891e-17 -1.116956326e-16)
(10 1.435386269e-16 -8.277579446e-16)
(10 -1.960908728e-16 -7.297658738e-17)
(10 1.268300391e-16 -1.146576387e-17)
(10 -6.717943893e-17 2.321343107e-16)
(10 1.679659578e-16 3.561975067e-16)
(10 -2.948865037e-16 5.206801566e-16)
(10 -9.839547399e-17 7.925655951e-16)
(10 -5.721241866e-16 1.448070802e-16)
(10 2.288419624e-16 -5.915112023e-17)
(10 4.572809905e-16 3.135634055e-16)
(10 -3.829519273e-16 1.43457376e-16)
(10 -2.058651013e-16 2.855351777e-16)
(10 -2.770812888e-16 -1.926655152e-16)
(10 3.602456218e-16 -4.324012611e-16)
(10 -4.503982978e-16 -3.285113039e-17)
(10 1.9912897e-16 1.617065464e-16)
(10 -2.724766256e-17 2.684210026e-16)
(10 6.957583809e-17 -5.540991452e-16)
(10 -1.909219927e-16 -3.137811529e-16)
(10 3.765055752e-16 -2.422380059e-16)
(10 8.517507756e-17 -2.27495808e-16)
(10 2.012325482e-16 -9.701401997e-17)
(10 3.155088323e-16 -1.955338387e-16)
(10 1.655917963e-16 -2.756747531e-17)
(10 6.612236479e-17 3.325003985e-16)
(10 -4.684785659e-17 4.05771072e-16)
(10 1.661409104e-16 -3.9890771e-17)
(10 -3.046371075e-16 -2.973512506e-16)
(10 5.972363785e-16 1.752580142e-16)
(10 1.036562218e-16 1.548792159e-16)
(10 2.740069446e-16 -1.912524338e-16)
(10 -4.549503475e-16 -4.211899532e-16)
(10 1.985068811e-16 7.936794368e-17)
(10 2.17656171e-16 1.941894189e-16)
(10 1.914057145e-16 1.564400318e-16)
(10 3.96726406e-16 -6.142898975e-16)
(10 -7.892284982e-17 6.21308106e-16)
(10 -2.58579846e-16 2.639403214e-16)
(10 3.099361943e-16 2.205613668e-16)
(10 -2.253598155e-16 -2.271492773e-16)
(10 -5.845415878e-17 1.269389148e-16)
(10 -4.113289296e-16 3.103697465e-16)
(10 -2.804513892e-16 1.823053899e-16)
(10 -2.177170204e-17 -7.57164884e-17)
(10 2.115558614e-16 -8.349992141e-17)
(10 -6.780030098e-17 1.549248937e-16)
(10 -1.820881838e-16 -6.651417344e-17)
(10 -2.315712357e-16 1.288297897e-17)
(10 -3.604858548e-17 7.797505717e-16)
(10 -8.120995861e-16 2.897976078e-15)
)
;

boundaryField
{
    left
    {
        type            dirichlet;
        value           uniform (4 0 0);
    }
    right
    {
        type            dirichlet;
        value           uniform (4 0 0);
    }
    sides
    {
        type            empty;
    }
}


// ************************************************************************* //
