/*--------------------------------*- C++ -*----------------------------------*\
| =========                 |                                                 |
| \\      /  F ield         | foam-extend: Open Source CFD                    |
|  \\    /   O peration     | Version:     4.1                                |
|   \\  /    A nd           | Web:         http://www.foam-extend.org         |
|    \\/     M anipulation  |                                                 |
\*---------------------------------------------------------------------------*/
FoamFile
{
    version     2.0;
    format      ascii;
    class       cellScalarField;
    location    "15";
    object      T;
}
// * * * * * * * * * * * * * * * * * * * * * * * * * * * * * * * * * * * * * //

dimensions      [0 0 0 0 1 0 0];

internalField   nonuniform 
100
(
(4 -5.703630593e-17 1.624202108e-17)
(4 -1.112749147e-16 1.039247918e-17)
(4 -2.557894187e-16 -1.230420256e-16)
(4 2.998127273e-17 -1.313794017e-16)
(4 9.97635449e-17 1.176462786e-17)
(4 -2.737870378e-16 1.318654073e-16)
(4 1.659222819e-16 1.786036918e-16)
(4 -4.120446355e-16 7.446356618e-17)
(4 8.234190121e-16 2.974929966e-17)
(4 -1.210012906e-15 2.208892409e-18)
(4 1.286361681e-16 8.149238393e-17)
(4 7.236102e-16 1.290836545e-15)
(4 4.909910054e-14 3.192623954e-14)
(4 8.195983078e-13 5.034150492e-13)
(4 1.587587471e-11 1.074369771e-11)
(4 2.795112643e-10 1.634914693e-10)
(4.000000004 3.968379509e-09 2.307333418e-09)
(4.000000049 5.44420471e-08 3.018435359e-08)
(4.000000598 6.407997074e-07 3.245913898e-07)
(4.000006276 6.444407072e-06 3.071984695e-06)
(4.000057942 5.722036166e-05 2.498593369e-05)
(4.000456316 0.0004206111119 0.0001582204806)
(4.00289347 0.002393925999 0.000742575083)
(4.01437128 0.01035207807 0.002575313315)
(4.056039197 0.0343347213 0.006677747212)
(4.174327204 0.0889589648 0.01307670386)
(4.441511156 0.1835258634 0.01932069625)
(4.929780827 0.3067878931 0.0209618526)
(5.662638683 0.4219808318 0.0149096098)
(6.57817536 0.484083737 0.002734372686)
(7.541471491 0.4687045496 -0.009948302023)
(8.404178465 0.387129173 -0.01768419318)
(9.068133145 0.2754075658 -0.01873547083)
(9.511110189 0.1702499145 -0.01507044019)
(9.769393395 0.09219843452 -0.009898471668)
(9.901993938 0.04407320289 -0.005496963714)
(9.962358846 0.0187291456 -0.002636220683)
(9.986888432 0.00712271637 -0.001108163688)
(9.995841626 0.002439393742 -0.0004130240577)
(9.998794307 0.0007568261205 -0.0001377809746)
(9.999679089 0.0002139007467 -4.147103455e-05)
(9.999921269 5.536259283e-05 -1.134266174e-05)
(9.999982125 1.318749536e-05 -2.836915239e-06)
(9.999996229 2.904537803e-06 -6.52564902e-07)
(9.999999258 5.941086056e-07 -1.387754617e-07)
(9.999999863 1.133228094e-07 -2.741513195e-08)
(9.999999976 2.023524364e-08 -5.053217353e-09)
(9.999999996 3.394771468e-09 -8.725865514e-10)
(9.999999999 5.369000751e-10 -1.416926213e-10)
(10 8.030271579e-11 -2.171147921e-11)
(10 1.139375634e-11 -3.148486408e-12)
(10 1.534309853e-12 -4.331578738e-13)
(10 1.99662997e-13 -5.822602875e-14)
(10 2.267696264e-14 -7.531186993e-15)
(10 1.345686136e-15 -1.222895986e-15)
(10 -3.877423858e-16 -5.10327831e-17)
(10 -4.38017861e-16 -6.285129344e-16)
(10 5.272753467e-16 -1.228410495e-16)
(10 -9.74947837e-17 -2.773551563e-16)
(10 4.156805876e-16 1.754114697e-16)
(10 -3.226656809e-16 1.252443004e-16)
(10 2.164862054e-18 1.198082862e-16)
(10 2.118307533e-16 3.098004654e-16)
(10 2.459784408e-16 -6.936817739e-17)
(10 2.340154922e-16 9.756418911e-17)
(10 -1.506652294e-16 -2.116338963e-16)
(10 9.027061336e-17 -2.28602635e-16)
(10 -7.165565064e-17 3.374131898e-16)
(10 1.073826146e-16 -3.462952232e-16)
(10 1.593431018e-16 3.919500137e-16)
(10 -1.180750135e-16 -4.888118892e-16)
(10 4.178395539e-17 -4.370036529e-16)
(10 3.794169816e-16 -1.940890272e-16)
(10 2.890912367e-16 -1.517797718e-16)
(10 -8.347558655e-18 -2.808181582e-16)
(10 1.377048992e-16 8.30154363e-17)
(10 -2.351893684e-16 -2.902382145e-16)
(10 3.788183609e-17 -2.524513499e-16)
(10 -1.982352902e-16 9.671074579e-17)
(10 2.647674847e-16 9.683694437e-17)
(10 5.094408372e-17 3.745417712e-16)
(10 6.164348323e-16 -8.457118136e-18)
(10 2.096733987e-17 3.150742873e-16)
(10 -4.678061648e-16 -1.519620256e-17)
(10 -1.188067213e-16 1.665413428e-16)
(10 4.532425131e-16 4.115206356e-16)
(10 -6.488502289e-17 -3.230050884e-16)
(10 3.256891219e-16 4.763027353e-16)
(10 1.209520315e-16 2.068178856e-16)
(10 -3.656903222e-16 5.014798856e-16)
(10 -5.5711664e-16 2.251364734e-16)
(10 -1.370500411e-16 1.926301946e-16)
(10 3.364325238e-16 -4.721001351e-16)
(10 3.270773872e-16 -3.52606403e-16)
(10 -7.757364738e-17 2.1534759e-16)
(10 -9.653832838e-17 8.493625365e-16)
(10 -2.031215384e-16 1.520194469e-16)
(10 4.255806749e-17 3.478397902e-16)
(10 -2.181236017e-16 -2.579789699e-16)
(10 2.359097969e-16 3.536980312e-15)
)
;

boundaryField
{
    left
    {
        type            dirichlet;
        value           uniform (4 0 0);
    }
    right
    {
        type            dirichlet;
        value           uniform (4 0 0);
    }
    sides
    {
        type            empty;
    }
}


// ************************************************************************* //
