/*--------------------------------*- C++ -*----------------------------------*\
| =========                 |                                                 |
| \\      /  F ield         | foam-extend: Open Source CFD                    |
|  \\    /   O peration     | Version:     4.1                                |
|   \\  /    A nd           | Web:         http://www.foam-extend.org         |
|    \\/     M anipulation  |                                                 |
\*---------------------------------------------------------------------------*/
FoamFile
{
    version     2.0;
    format      ascii;
    class       cellScalarField;
    location    "33";
    object      T;
}
// * * * * * * * * * * * * * * * * * * * * * * * * * * * * * * * * * * * * * //

dimensions      [0 0 0 0 1 0 0];

internalField   nonuniform 
100
(
(4 -5.703630593e-17 1.624202108e-17)
(4 -2.074012158e-16 -8.769193086e-17)
(4 -3.584681734e-17 -1.078227989e-16)
(4 3.846484563e-17 -1.179589414e-16)
(4 -1.346183073e-17 -6.109229941e-17)
(4 -3.622906755e-16 7.265790066e-17)
(4 3.409871101e-16 7.261119793e-17)
(4 -4.560041204e-16 -1.838433196e-16)
(4 6.324273513e-16 7.732417186e-17)
(4 -1.084192474e-15 -2.478208352e-16)
(4 2.927467275e-16 -2.413218823e-16)
(4 -1.540105133e-16 -1.360991827e-16)
(4 1.078978318e-15 -1.945136827e-16)
(4 -5.174434439e-17 -5.785917971e-17)
(4 2.789399796e-16 1.311380926e-16)
(4 -1.991039678e-16 -1.203432092e-16)
(4 1.382959527e-16 -2.337046081e-16)
(4 3.627261443e-17 -1.421068671e-16)
(4 7.438895414e-16 1.658097669e-16)
(4 -8.930311222e-16 -2.050134037e-16)
(4 9.510991465e-16 -9.431161691e-17)
(4 -6.97939529e-16 8.77507085e-17)
(4 2.908119069e-16 -3.766819913e-17)
(4 -2.717030365e-16 2.618920502e-16)
(4 -2.040264678e-17 8.43683258e-17)
(4 -1.381528371e-16 -2.49611607e-17)
(4 -1.721966496e-16 -6.94007496e-17)
(4 1.507551851e-16 -3.419179472e-17)
(4 -4.803215737e-16 -1.315746612e-16)
(4 3.326166396e-16 -2.706857794e-16)
(4 5.469826156e-16 -7.363238651e-17)
(4 3.033288774e-17 2.295795061e-17)
(4 -1.072975377e-16 1.038021741e-16)
(4 -9.512948256e-17 8.589517183e-18)
(4 5.648853815e-16 3.999608294e-17)
(4 -8.489586415e-16 -1.58468874e-16)
(4 5.706632643e-16 -1.01437313e-16)
(4 -5.35501166e-16 3.779338911e-17)
(4 4.136239671e-16 -9.551319024e-17)
(4 5.094473924e-16 1.447589807e-15)
(4 2.410069455e-14 1.271207832e-14)
(4 2.555318343e-13 1.246171598e-13)
(4 2.465853084e-12 1.161355346e-12)
(4 2.219694127e-11 1.004383534e-11)
(4 1.852783187e-10 8.013935698e-11)
(4.000000002 1.426100349e-09 5.866005958e-10)
(4.000000011 1.006354415e-08 3.912518636e-09)
(4.000000074 6.467821603e-08 2.359492823e-08)
(4.000000453 3.759254692e-07 1.276538487e-07)
(4.00000249 1.963265727e-06 6.155634359e-07)
(4.000012338 9.168851623e-06 2.634221691e-06)
(4.000054887 3.81917882e-05 9.983426862e-06)
(4.000219072 0.0001418048183 3.350191516e-05)
(4.000785073 0.0004698110604 9.965174432e-05)
(4.002531228 0.001391859612 0.0002632016919)
(4.007364055 0.00369772696 0.0006185003723)
(4.019399102 0.008837505656 0.001295463725)
(4.046450934 0.01906494017 0.002421608624)
(4.10151304 0.03724900513 0.004041408045)
(4.203327433 0.06613038943 0.006014673774)
(4.374889607 0.1070235102 0.007953243105)
(4.639127378 0.1583705402 0.009266901898)
(5.012186054 0.2149063634 0.009346770289)
(5.496310983 0.2681660054 0.007827875924)
(6.075295929 0.3085157093 0.004799338539)
(6.71500573 0.3280594862 0.0008340855225)
(7.369535357 0.3231911023 -0.003197477851)
(7.99109505 0.2956504618 -0.006442251419)
(8.540099639 0.2516785235 -0.008351242096)
(8.99206004 0.1997823761 -0.008810632285)
(9.33952453 0.1481729776 -0.00808661253)
(9.589459042 0.1028737607 -0.006648842627)
(9.757973236 0.06698157402 -0.004976163441)
(9.864657654 0.04097165212 -0.003424344557)
(9.928183852 0.02358437807 -0.002181824764)
(9.963820803 0.0127964281 -0.00129383263)
(9.982684618 0.006554867094 -0.0007170207786)
(9.992120966 0.003174794389 -0.0003726032454)
(9.996588498 0.001456093895 -0.0001820839516)
(9.998593183 0.0006333029942 -8.388791219e-05)
(9.999446964 0.0002615713939 -3.651787776e-05)
(9.999792551 0.000102734514 -1.505136415e-05)
(9.999925676 3.842061007e-05 -5.884707092e-06)
(9.999974541 1.369911078e-05 -2.186296548e-06)
(9.999991654 4.66276918e-06 -7.73102398e-07)
(9.999997379 1.516866215e-06 -2.606012451e-07)
(9.999999211 4.721897297e-07 -8.386101694e-08)
(9.999999772 1.408159454e-07 -2.579822369e-08)
(9.999999937 4.027538938e-08 -7.596961982e-09)
(9.999999983 1.10599645e-08 -2.144176975e-09)
(9.999999996 2.919129155e-09 -5.807346734e-10)
(9.999999999 7.41292528e-10 -1.511135659e-10)
(10 1.813009474e-10 -3.781959148e-11)
(10 4.27436953e-11 -9.113695443e-12)
(10 9.723324693e-12 -2.116219506e-12)
(10 2.137275846e-12 -4.748862358e-13)
(10 4.500493944e-13 -1.034250936e-13)
(10 8.89509378e-14 -1.9533294e-14)
(10 2.37239992e-14 -4.582636591e-15)
(10 1.003272833e-14 1.243574257e-15)
)
;

boundaryField
{
    left
    {
        type            dirichlet;
        value           uniform (4 0 0);
    }
    right
    {
        type            dirichlet;
        value           uniform (4 0 0);
    }
    sides
    {
        type            empty;
    }
}


// ************************************************************************* //
