/*--------------------------------*- C++ -*----------------------------------*\
| =========                 |                                                 |
| \\      /  F ield         | foam-extend: Open Source CFD                    |
|  \\    /   O peration     | Version:     4.1                                |
|   \\  /    A nd           | Web:         http://www.foam-extend.org         |
|    \\/     M anipulation  |                                                 |
\*---------------------------------------------------------------------------*/
FoamFile
{
    version     2.0;
    format      ascii;
    class       cellScalarField;
    location    "1.5";
    object      T;
}
// * * * * * * * * * * * * * * * * * * * * * * * * * * * * * * * * * * * * * //

dimensions      [0 0 0 0 1 0 0];

internalField   nonuniform 10((3.99946822 -0.004686949535 0.0002655558547) (4.125669522 0.2388504352 0.1556949493) (5.721019747 1.371511748 0.09485966198) (8.450797894 1.096637873 -0.1697386255) (9.732931061 0.2632659364 -0.06997474467) (9.972359319 0.03160778121 -0.01007777619) (9.997893388 0.002618796399 -0.0009162097225) (9.999868378 0.0001727071585 -6.399312992e-05) (9.99999284 9.76070851e-06 -3.76295161e-06) (9.999999648 4.934758399e-07 -1.95929129e-07));

boundaryField
{
    left
    {
        type            dirichlet;
        value           uniform (4 0 0);
    }
    right
    {
        type            dirichlet;
        value           uniform (4 0 0);
    }
    sides
    {
        type            empty;
    }
}


// ************************************************************************* //
