/*--------------------------------*- C++ -*----------------------------------*\
| =========                 |                                                 |
| \\      /  F ield         | foam-extend: Open Source CFD                    |
|  \\    /   O peration     | Version:     4.1                                |
|   \\  /    A nd           | Web:         http://www.foam-extend.org         |
|    \\/     M anipulation  |                                                 |
\*---------------------------------------------------------------------------*/
FoamFile
{
    version     2.0;
    format      ascii;
    class       cellScalarField;
    location    "0.2";
    object      T;
}
// * * * * * * * * * * * * * * * * * * * * * * * * * * * * * * * * * * * * * //

dimensions      [0 0 0 0 1 0 0];

internalField   nonuniform 10((7.651967825 3.134875036 -0.8941396151) (9.949123328 0.06244552754 -0.01314642685) (9.998930739 0.001148919719 -9.052094759e-05) (9.999978516 1.805698172e-05 3.894643116e-06) (9.999999599 1.755289845e-07 2.565423621e-07) (9.999999993 -2.746214408e-09 1.052716107e-08) (10 -2.530939427e-10 3.694596873e-10) (10 -1.109434899e-11 1.198178186e-11) (10 -4.015500011e-13 3.710050621e-13) (10 -1.347948397e-14 1.454110401e-14));

boundaryField
{
    left
    {
        type            dirichlet;
        value           uniform (4 0 0);
    }
    right
    {
        type            dirichlet;
        value           uniform (4 0 0);
    }
    sides
    {
        type            empty;
    }
}


// ************************************************************************* //
