/*--------------------------------*- C++ -*----------------------------------*\
| =========                 |                                                 |
| \\      /  F ield         | foam-extend: Open Source CFD                    |
|  \\    /   O peration     | Version:     4.1                                |
|   \\  /    A nd           | Web:         http://www.foam-extend.org         |
|    \\/     M anipulation  |                                                 |
\*---------------------------------------------------------------------------*/
FoamFile
{
    version     2.0;
    format      ascii;
    class       cellScalarField;
    location    "44.6";
    object      T;
}
// * * * * * * * * * * * * * * * * * * * * * * * * * * * * * * * * * * * * * //

dimensions      [0 0 0 0 1 0 0];

internalField   nonuniform 
100
(
(4 -5.703630593e-17 1.624202108e-17)
(4 -2.022376768e-16 -8.30974426e-17)
(4 -1.011318e-16 1.439187882e-16)
(4 1.838441257e-16 1.4534229e-16)
(4 5.779282863e-17 -9.506095189e-17)
(4 -5.383256997e-16 2.624964667e-16)
(4 4.778785696e-16 2.514029678e-17)
(4 -3.822587554e-16 1.709212409e-16)
(4 7.169531925e-16 -1.26027065e-16)
(4 -1.197120539e-15 -2.215723352e-16)
(4 1.20383816e-17 7.307686908e-17)
(4 4.12814067e-16 3.708567807e-17)
(4 4.84436926e-16 1.208368011e-16)
(4 -1.301703967e-16 3.288342973e-16)
(4 2.687182884e-16 1.761270565e-16)
(4 -5.002289817e-16 -3.235778847e-16)
(4 1.017176679e-15 -1.029413907e-16)
(4 -5.749664722e-16 5.21124669e-17)
(4 2.463884135e-16 -7.78421039e-17)
(4 -1.127964618e-16 -1.405944432e-16)
(4 6.15888451e-17 -8.898400981e-17)
(4 -2.22713588e-16 7.894018611e-17)
(4 -1.059293996e-17 1.98732696e-17)
(4 1.48633893e-17 2.257060514e-16)
(4 -8.53558415e-17 -7.690902163e-17)
(4 -1.641522135e-16 -1.279772491e-17)
(4 -6.344099939e-17 5.03197755e-17)
(4 -6.246951884e-17 3.611861936e-16)
(4 -7.661134195e-16 2.453580062e-16)
(4 3.778421773e-16 -2.405938869e-17)
(4 -7.24988752e-18 1.740326973e-17)
(4 -4.018238583e-17 1.714569625e-16)
(4 9.955862756e-18 3.27522471e-16)
(4 -7.643392625e-16 5.614008308e-17)
(4 9.197093793e-16 1.121070051e-16)
(4 -8.827527539e-16 -1.012426108e-17)
(4 9.959334688e-16 -3.44995967e-17)
(4 -9.952569652e-16 1.006078695e-16)
(4 4.979607797e-16 1.030836989e-16)
(4 8.523472691e-18 2.091262636e-16)
(4 4.330613024e-17 5.947468833e-17)
(4 -2.13577914e-16 -4.41270504e-17)
(4 -3.616257657e-17 9.927276654e-18)
(4 7.246334849e-17 -4.420646139e-17)
(4 -5.254555273e-16 1.599262975e-16)
(4 7.342916278e-16 -5.3217583e-17)
(4 -9.621467427e-16 -4.832324529e-17)
(4 8.004334636e-16 4.500016477e-17)
(4 -8.62897753e-16 9.395941001e-17)
(4 3.433302864e-16 -1.785444924e-16)
(4 3.079282015e-16 -2.113885644e-16)
(4 6.370093712e-18 -4.063658414e-17)
(4 -1.775425041e-18 9.109308216e-17)
(4 -1.277465347e-16 5.464343565e-17)
(4 1.521890972e-16 -5.045882765e-17)
(4 -2.669394708e-16 -3.071249938e-17)
(4 8.830053014e-17 -1.376715364e-16)
(4 2.06870707e-16 1.425151688e-16)
(4 2.857487126e-15 8.982863938e-16)
(4 2.006187746e-14 9.658390298e-15)
(4 1.799089709e-13 7.67369278e-14)
(4 1.364830724e-12 5.592079151e-13)
(4 9.655520518e-12 3.792000644e-12)
(4 6.380195661e-11 2.397126245e-11)
(4 3.928537207e-10 1.406527074e-10)
(4.000000003 2.246098992e-09 7.631448232e-10)
(4.000000015 1.188669079e-08 3.816601216e-09)
(4.000000076 5.807295552e-08 1.754740573e-08)
(4.00000036 2.613955093e-07 7.402763981e-08)
(4.000001567 1.082642934e-06 2.862422735e-07)
(4.000006293 4.123867134e-06 1.014034833e-06)
(4.000023334 1.444803949e-05 3.29172873e-06)
(4.000079918 4.658901095e-05 9.797364486e-06)
(4.000253112 0.0001384181316 2.676069158e-05)
(4.000742361 0.0003794298261 6.715019695e-05)
(4.002019734 0.0009611265462 0.0001549668442)
(4.005107098 0.002253596798 0.0003292513711)
(4.012026559 0.004899856368 0.0006446187071)
(4.026431806 0.009896405232 0.001163701323)
(4.054337032 0.01860079646 0.001937543919)
(4.104723345 0.03259170121 0.002974362743)
(4.189667528 0.05332710972 0.004204953158)
(4.323592729 0.08161645112 0.005461003819)
(4.521376758 0.1170297093 0.006484806689)
(4.795402099 0.1574633648 0.006980539808)
(5.152106422 0.1991040676 0.006699180004)
(5.588993323 0.2369335572 0.005529237615)
(6.09316146 0.2657202488 0.00355572645)
(6.642081184 0.2812278168 0.001058143135)
(7.206667411 0.2812487214 -0.001557315612)
(7.755931568 0.2661122795 -0.003867585611)
(8.261971712 0.2385097909 -0.005543385282)
(8.703997209 0.2027317889 -0.00642156183)
(9.070483687 0.1636073649 -0.006519206518)
(9.359213232 0.1254945388 -0.005994638572)
(9.575588256 0.09159019078 -0.00507873333)
(9.729989987 0.06366824453 -0.00400501813)
(9.835007117 0.04219698566 -0.002959668935)
(9.90315509 0.02668993323 -0.002059508068)
(9.945387045 0.01612622097 -0.001354402382)
)
;

boundaryField
{
    left
    {
        type            dirichlet;
        value           uniform (4 0 0);
    }
    right
    {
        type            dirichlet;
        value           uniform (4 0 0);
    }
    sides
    {
        type            empty;
    }
}


// ************************************************************************* //
