/*--------------------------------*- C++ -*----------------------------------*\
| =========                 |                                                 |
| \\      /  F ield         | foam-extend: Open Source CFD                    |
|  \\    /   O peration     | Version:     4.1                                |
|   \\  /    A nd           | Web:         http://www.foam-extend.org         |
|    \\/     M anipulation  |                                                 |
\*---------------------------------------------------------------------------*/
FoamFile
{
    version     2.0;
    format      ascii;
    class       cellScalarField;
    location    "23.2";
    object      T;
}
// * * * * * * * * * * * * * * * * * * * * * * * * * * * * * * * * * * * * * //

dimensions      [0 0 0 0 1 0 0];

internalField   nonuniform 
100
(
(4 -5.703630593e-17 1.624202108e-17)
(4 -2.048172732e-17 9.971781602e-17)
(4 -3.54698738e-17 2.331993636e-16)
(4 1.633560886e-17 -2.212423223e-17)
(4 -1.345685851e-16 1.422178005e-16)
(4 -4.799751891e-16 1.230532742e-16)
(4 3.446238501e-16 -5.46742822e-17)
(4 -4.090444636e-16 1.018101748e-16)
(4 7.700382154e-16 -7.018434435e-17)
(4 -1.449082009e-15 2.553457234e-16)
(4 -6.58106463e-17 1.672035526e-16)
(4 7.846525468e-16 1.186656413e-18)
(4 -1.836885925e-17 1.550563553e-17)
(4 -3.609669885e-16 -1.59973469e-16)
(4 1.069927923e-15 5.562433397e-17)
(4 -7.736216256e-16 1.997903567e-16)
(4 7.451705977e-16 1.342457554e-16)
(4 -8.554630108e-16 1.627346703e-16)
(4 1.115590401e-15 -7.814948457e-17)
(4 -8.849602578e-16 3.963667861e-17)
(4 6.210664128e-16 -1.098327239e-16)
(4 -2.193979916e-16 3.162211514e-16)
(4 -1.426736409e-17 -1.60860473e-16)
(4 1.748384404e-15 5.631429788e-16)
(4 9.553992729e-15 4.956335855e-15)
(4 1.303069366e-13 7.507851099e-14)
(4 1.753753924e-12 9.688580302e-13)
(4 2.15683751e-11 1.144786693e-11)
(4 2.435603546e-10 1.240554895e-10)
(4.000000002 2.51865283e-09 1.221582992e-09)
(4.000000024 2.358308952e-08 1.08076276e-08)
(4.000000205 1.984300148e-07 8.535569055e-08)
(4.000001604 1.487471229e-06 5.93262309e-07)
(4.000011118 9.771194478e-06 3.549345425e-06)
(4.000067203 5.520525129e-05 1.793209926e-05)
(4.000349912 0.0002648614502 7.573969711e-05)
(4.001560261 0.001074198972 0.0002668744383)
(4.005959894 0.003688830046 0.000786396089)
(4.019589686 0.01078128681 0.001945841251)
(4.05578625 0.02699975579 0.004058242892)
(4.138741182 0.05835627701 0.007147217985)
(4.303920371 0.1096325131 0.01060874434)
(4.591560381 0.1802370981 0.01314928506)
(5.032322987 0.2609366756 0.01326537917)
(5.630076151 0.3346148719 0.01011589769)
(6.351389234 0.3821371669 0.004195984336)
(7.12972937 0.3905993849 -0.002754096935)
(7.884247737 0.3590088138 -0.008608436542)
(8.544188447 0.2980094135 -0.01189111171)
(9.067113102 0.2243259942 -0.01231723836)
(9.443934114 0.1537181177 -0.01061753111)
(9.691771012 0.09623815061 -0.007935669346)
(9.841059163 0.0552391769 -0.005254764417)
(9.923688854 0.0291644893 -0.003124375739)
(9.965844681 0.01420803189 -0.001683802406)
(9.985728113 0.006406079632 -0.0008283855149)
(9.994423443 0.002680909709 -0.0003741809603)
(9.997958867 0.001044253669 -0.0001559329403)
(9.99929889 0.0003795940555 -6.020395745e-05)
(9.999773578 0.0001291021925 -2.161552946e-05)
(9.999931122 4.1182971e-05 -7.241513748e-06)
(9.999980226 1.235094322e-05 -2.270715262e-06)
(9.999994633 3.490362744e-06 -6.683644718e-07)
(9.99999862 9.314958651e-07 -1.851590787e-07)
(9.999999663 2.352592348e-07 -4.840039763e-08)
(9.999999922 5.634402737e-08 -1.196610488e-08)
(9.999999983 1.282124809e-08 -2.8043184e-09)
(9.999999996 2.777190415e-09 -6.242981662e-10)
(9.999999999 5.736599173e-10 -1.322862857e-10)
(10 1.131936148e-10 -2.673278739e-11)
(10 2.13688513e-11 -5.160386299e-12)
(10 3.865216087e-12 -9.535330463e-13)
(10 6.678052034e-13 -1.67846441e-13)
(10 1.118037708e-13 -2.771085226e-14)
(10 1.860702713e-14 -4.220894982e-15)
(10 3.953955329e-15 -2.693006899e-15)
(10 3.796738565e-16 2.546092696e-16)
(10 -5.07142375e-16 -4.220518475e-16)
(10 1.270703988e-15 -8.494342582e-16)
(10 4.012752028e-17 -5.968272426e-17)
(10 -8.980019133e-18 -1.194587314e-16)
(10 -1.086504646e-16 -1.062511108e-16)
(10 4.280659301e-16 2.173109136e-16)
(10 -2.698034225e-16 -4.348319016e-17)
(10 1.441866919e-16 6.435767482e-16)
(10 -3.996520831e-16 5.040745958e-16)
(10 -7.284467435e-17 9.322693576e-17)
(10 -9.345241848e-17 2.753439053e-16)
(10 5.62723257e-16 -8.613708268e-17)
(10 3.088567767e-16 9.276025525e-18)
(10 -3.541115237e-16 1.564320271e-16)
(10 -3.234963294e-16 2.46603874e-16)
(10 -3.137948615e-16 7.972057996e-17)
(10 -1.192121511e-16 -5.843431194e-16)
(10 3.443797933e-17 -5.361344479e-17)
(10 4.040893465e-16 2.054017247e-16)
(10 1.176312838e-16 -3.609048737e-16)
(10 1.592133642e-16 -8.367828037e-18)
(10 -2.64857639e-16 -6.522413782e-16)
(10 -1.15522646e-15 3.686980215e-15)
)
;

boundaryField
{
    left
    {
        type            dirichlet;
        value           uniform (4 0 0);
    }
    right
    {
        type            dirichlet;
        value           uniform (4 0 0);
    }
    sides
    {
        type            empty;
    }
}


// ************************************************************************* //
