/*--------------------------------*- C++ -*----------------------------------*\
| =========                 |                                                 |
| \\      /  F ield         | foam-extend: Open Source CFD                    |
|  \\    /   O peration     | Version:     4.1                                |
|   \\  /    A nd           | Web:         http://www.foam-extend.org         |
|    \\/     M anipulation  |                                                 |
\*---------------------------------------------------------------------------*/
FoamFile
{
    version     2.0;
    format      ascii;
    class       cellScalarField;
    location    "9.9";
    object      T;
}
// * * * * * * * * * * * * * * * * * * * * * * * * * * * * * * * * * * * * * //

dimensions      [0 0 0 0 1 0 0];

internalField   nonuniform 
100
(
(4 -5.703630593e-17 1.624202108e-17)
(4 1.336830438e-16 -1.263435447e-16)
(4 -1.227534189e-16 -1.404645898e-16)
(4 3.905142812e-16 4.120696431e-16)
(4 -9.529006305e-15 -8.362916689e-15)
(4 3.056630986e-13 3.359105242e-13)
(4 2.949413047e-12 -8.434561624e-13)
(4 9.5183698e-11 1.26451898e-10)
(4.000000003 3.38841603e-09 1.593723705e-09)
(4.00000004 4.302425961e-08 3.239993992e-08)
(4.000000795 9.923336355e-07 6.106903178e-07)
(4.000011885 1.296189024e-05 6.68675988e-06)
(4.000137547 0.0001469626023 7.921807084e-05)
(4.001489944 0.001560362285 0.0007096387208)
(4.012253908 0.01120976747 0.003790987204)
(4.068462577 0.0511866465 0.01229481191)
(4.264635559 0.1553859963 0.02516606157)
(4.742850945 0.3301070266 0.03245746297)
(5.590459894 0.5118503201 0.02317613226)
(6.71937477 0.5989942049 9.967854068e-05)
(7.880226837 0.5437134204 -0.02108102351)
(8.823101615 0.3917500698 -0.02849594068)
(9.44011131 0.2285915125 -0.02345250705)
(9.771197181 0.1099744742 -0.01418446963)
(9.919222146 0.04433431054 -0.006756127541)
(9.975177285 0.01519978361 -0.002633076151)
(9.993304688 0.004492530684 -0.0008618349468)
(9.998401087 0.001159113128 -0.0002416687651)
(9.999659007 0.0002640664974 -5.900543741e-05)
(9.999934516 5.367777047e-05 -1.271705879e-05)
(9.999988587 9.828836559e-06 -2.448139492e-06)
(9.999998181 1.635254129e-06 -4.253260904e-07)
(9.999999733 2.49135605e-07 -6.729568259e-08)
(9.999999964 3.500392888e-08 -9.775022269e-09)
(9.999999995 4.564476985e-09 -1.312826374e-09)
(9.999999999 5.55584209e-10 -1.640611243e-10)
(10 6.345126424e-11 -1.918466359e-11)
(10 6.833383864e-12 -2.110353335e-12)
(10 6.983241741e-13 -2.199160887e-13)
(10 6.396337655e-14 -2.147720329e-14)
(10 7.022338909e-15 -2.419237258e-15)
(10 -1.51884798e-15 4.32760393e-16)
(10 1.799668214e-17 1.663416814e-16)
(10 2.047689162e-16 2.349177252e-16)
(10 -9.84262976e-17 -9.161119879e-17)
(10 -2.654978449e-16 -2.390505509e-16)
(10 1.494010575e-16 6.677068633e-16)
(10 -3.199229511e-16 8.551828555e-16)
(10 -2.836046998e-16 4.327249993e-16)
(10 5.779034208e-17 4.95401429e-17)
(10 -6.251257474e-17 -3.362667527e-16)
(10 -1.357515222e-16 -1.144984475e-16)
(10 -3.110051593e-16 2.243105845e-16)
(10 3.338038835e-16 -1.441823392e-16)
(10 -1.265238904e-16 2.470985542e-16)
(10 -1.948550508e-17 -3.639619174e-16)
(10 -2.027636101e-16 -4.368197695e-16)
(10 1.498014938e-16 5.861721952e-16)
(10 1.026094091e-16 -2.233034225e-16)
(10 2.206396863e-16 1.580262918e-17)
(10 8.945361014e-17 -8.141570202e-16)
(10 -1.406111966e-16 9.021819313e-17)
(10 1.947693233e-16 2.223521814e-16)
(10 2.255456438e-16 6.668332916e-17)
(10 7.445746418e-17 -1.301741568e-16)
(10 -1.171466098e-17 5.030575899e-16)
(10 -3.501976006e-16 1.248657488e-16)
(10 1.143333295e-16 1.895380013e-16)
(10 2.836048828e-16 -6.411167703e-16)
(10 -1.271321932e-16 -2.440030783e-16)
(10 2.362470298e-16 6.275090768e-16)
(10 4.156859865e-16 2.570335534e-16)
(10 4.378444885e-16 4.994909007e-17)
(10 -2.846147884e-16 -7.123653146e-16)
(10 5.034379203e-16 1.66794735e-16)
(10 -4.185417349e-16 5.85116935e-16)
(10 2.905721864e-17 6.169572631e-16)
(10 1.60420372e-16 -4.290984026e-16)
(10 -3.565444054e-16 2.861276918e-16)
(10 -2.938352047e-17 1.146999028e-16)
(10 2.288537378e-16 1.038496596e-16)
(10 -1.290548361e-16 -1.567161855e-16)
(10 9.225547437e-17 -4.501204845e-16)
(10 -1.684603574e-16 2.017738868e-16)
(10 -3.945048429e-16 -5.395500869e-16)
(10 1.416077706e-16 -1.838653843e-16)
(10 5.067129337e-16 4.735176634e-17)
(10 -2.603288151e-16 7.48973434e-16)
(10 -2.192187726e-16 5.69266038e-17)
(10 -1.854297255e-16 6.769899064e-17)
(10 -3.414641057e-16 4.102568964e-16)
(10 2.282727488e-17 1.218580069e-16)
(10 -2.649642611e-16 2.453169875e-16)
(10 -1.894112883e-17 4.26545229e-17)
(10 -2.350594994e-17 1.46179938e-16)
(10 -4.542592377e-16 -9.928045862e-17)
(10 -1.210248092e-18 -3.765913058e-16)
(10 1.093612822e-16 -2.476806326e-16)
(10 8.523293909e-17 -4.060719251e-16)
(10 5.630598297e-17 3.349853575e-15)
)
;

boundaryField
{
    left
    {
        type            dirichlet;
        value           uniform (4 0 0);
    }
    right
    {
        type            dirichlet;
        value           uniform (4 0 0);
    }
    sides
    {
        type            empty;
    }
}


// ************************************************************************* //
