/*--------------------------------*- C++ -*----------------------------------*\
| =========                 |                                                 |
| \\      /  F ield         | foam-extend: Open Source CFD                    |
|  \\    /   O peration     | Version:     4.1                                |
|   \\  /    A nd           | Web:         http://www.foam-extend.org         |
|    \\/     M anipulation  |                                                 |
\*---------------------------------------------------------------------------*/
FoamFile
{
    version     2.0;
    format      ascii;
    class       cellScalarField;
    location    "1.8";
    object      T;
}
// * * * * * * * * * * * * * * * * * * * * * * * * * * * * * * * * * * * * * //

dimensions      [0 0 0 0 1 0 0];

internalField   nonuniform 10((4.00055388 4.01457758e-06 -0.0009038475896) (4.0118469 0.02947295897 0.04537867996) (4.614757686 0.7136228695 0.1808492998) (6.880587219 1.37770156 -0.04789829315) (9.064607046 0.7081651152 -0.1308440132) (9.845851283 0.150584476 -0.04015039365) (9.983274066 0.01865380094 -0.005820193328) (9.998621726 0.00166552925 -0.0005674685029) (9.999906082 0.0001197967272 -4.32121622e-05) (9.999994426 7.394654722e-06 -2.777526626e-06));

boundaryField
{
    left
    {
        type            dirichlet;
        value           uniform (4 0 0);
    }
    right
    {
        type            dirichlet;
        value           uniform (4 0 0);
    }
    sides
    {
        type            empty;
    }
}


// ************************************************************************* //
