/*--------------------------------*- C++ -*----------------------------------*\
| =========                 |                                                 |
| \\      /  F ield         | foam-extend: Open Source CFD                    |
|  \\    /   O peration     | Version:     4.1                                |
|   \\  /    A nd           | Web:         http://www.foam-extend.org         |
|    \\/     M anipulation  |                                                 |
\*---------------------------------------------------------------------------*/
FoamFile
{
    version     2.0;
    format      ascii;
    class       cellScalarField;
    location    "30";
    object      T;
}
// * * * * * * * * * * * * * * * * * * * * * * * * * * * * * * * * * * * * * //

dimensions      [0 0 0 0 1 0 0];

internalField   nonuniform 
100
(
(4 -5.703630593e-17 1.624202108e-17)
(4 1.052247078e-16 1.486937875e-16)
(4 -3.448247395e-17 1.603103933e-16)
(4 -1.854471711e-16 -8.06159929e-17)
(4 1.250442631e-16 -7.85750847e-17)
(4 -3.184510683e-16 3.351319565e-16)
(4 3.425637299e-16 -1.105251888e-16)
(4 -4.724964341e-16 2.365928452e-16)
(4 7.603472415e-16 4.73249082e-18)
(4 -1.058764276e-15 5.259141073e-16)
(4 -2.714454395e-16 1.728599546e-16)
(4 1.930131152e-16 -1.492179015e-17)
(4 5.836955439e-16 -1.253929395e-16)
(4 -9.765125882e-17 4.184319232e-17)
(4 -2.191722592e-18 5.962744156e-17)
(4 -9.211915063e-19 8.145480969e-17)
(4 7.810374091e-18 -6.288346516e-17)
(4 -2.427757622e-16 -1.074782209e-17)
(4 5.649245216e-17 7.522488324e-17)
(4 -1.78395441e-16 -5.947450451e-17)
(4 2.483969149e-16 -1.09785248e-16)
(4 1.674769192e-16 7.483047548e-17)
(4 -1.855541364e-16 -1.089654937e-16)
(4 -7.177165713e-17 -5.259464842e-18)
(4 -1.422583293e-18 7.770388784e-17)
(4 -3.256597333e-17 1.690653462e-17)
(4 1.066620477e-16 -6.292868509e-17)
(4 1.388274038e-16 2.85881011e-16)
(4 -9.497240665e-16 -2.636858158e-16)
(4 9.059511238e-16 -6.245914504e-17)
(4 -2.017358464e-16 1.40910009e-16)
(4 1.651085536e-16 2.801628464e-16)
(4 1.541402089e-17 3.026645447e-17)
(4 -3.091684486e-16 1.803981214e-19)
(4 7.831015962e-16 4.367059316e-16)
(4 1.60341493e-14 9.025914437e-15)
(4 1.88980626e-13 9.642825327e-14)
(4 1.989585227e-12 9.828174657e-13)
(4 1.957060775e-11 9.294253111e-12)
(4 1.781954497e-10 8.096588375e-11)
(4.000000002 1.492967268e-09 6.455030805e-10)
(4.000000012 1.143838679e-08 4.676936808e-09)
(4.000000088 7.956760005e-08 3.052550147e-08)
(4.00000058 4.982013282e-07 1.77634533e-07)
(4.000003412 2.782711996e-06 9.128406364e-07)
(4.000017941 1.376427925e-05 4.114289763e-06)
(4.000083865 6.002836973e-05 1.620711235e-05)
(4.00034787 0.0002305015631 5.576032818e-05)
(4.001281175 0.0007800682969 0.000167750551)
(4.004199393 0.002332663786 0.0004422355257)
(4.012294315 0.006185243469 0.001024084321)
(4.032287719 0.01460061806 0.002087426254)
(4.076427707 0.03080977409 0.003749798145)
(4.163878342 0.05835676315 0.005934668318)
(4.319963173 0.09961107577 0.008251478309)
(4.571873456 0.1538119638 0.01000340928)
(4.940820656 0.215628538 0.01039506541)
(5.43283983 0.2753834147 0.00888724864)
(6.032199087 0.3214280716 0.005514802819)
(6.701147854 0.3439266171 0.0009625964385)
(7.387176479 0.3383246696 -0.003674211397)
(8.03538452 0.30681176 -0.007323738828)
(8.601141312 0.2571615045 -0.009329337151)
(9.058393025 0.199713233 -0.009610968851)
(9.401405285 0.1440446532 -0.008562633218)
(9.640773873 0.09670635737 -0.006795798969)
(9.79650028 0.06056452468 -0.004883824608)
(9.891144198 0.03545585568 -0.003211200761)
(9.944986384 0.0194415613 -0.001945887694)
(9.973713066 0.01000423219 -0.001092674631)
(9.988113837 0.004840083586 -0.0005710634816)
(9.994909025 0.00220555798 -0.0002787899696)
(9.997932358 0.0009482773026 -0.0001275340536)
(9.999202841 0.0003853313689 -5.481855458e-05)
(9.999707918 0.0001482257797 -2.21950643e-05)
(9.999898173 5.406175538e-05 -8.483860074e-06)
(9.999966184 1.87240392e-05 -3.067922396e-06)
(9.99998929 6.167341955e-06 -1.051605196e-06)
(9.999996761 1.93469492e-06 -3.423027164e-07)
(9.999999064 5.788302411e-07 -1.059899115e-07)
(9.999999741 1.653881636e-07 -3.126970504e-08)
(9.999999931 4.519025496e-08 -8.80363952e-09)
(9.999999983 1.182299862e-08 -2.368770787e-09)
(9.999999996 2.965457468e-09 -6.099882489e-10)
(9.999999999 7.139395631e-10 -1.505365249e-10)
(10 1.651711354e-10 -3.565143888e-11)
(10 3.676310936e-11 -8.111275624e-12)
(10 7.879036868e-12 -1.775179611e-12)
(10 1.625813683e-12 -3.73751545e-13)
(10 3.255941823e-13 -7.724254464e-14)
(10 6.135722397e-14 -1.466873963e-14)
(10 1.460161523e-14 -2.164304395e-15)
(10 3.93511347e-15 -1.696661863e-15)
(10 -2.554736356e-16 2.229563612e-16)
(10 2.055240422e-16 2.29004334e-18)
(10 -1.891371886e-16 -5.143199743e-16)
(10 1.245782729e-16 -3.02908214e-16)
(10 -3.385693853e-17 -1.196602842e-16)
(10 -5.456303344e-17 7.757781232e-18)
(10 -4.239098564e-16 3.966323715e-15)
)
;

boundaryField
{
    left
    {
        type            dirichlet;
        value           uniform (4 0 0);
    }
    right
    {
        type            dirichlet;
        value           uniform (4 0 0);
    }
    sides
    {
        type            empty;
    }
}


// ************************************************************************* //
