/*--------------------------------*- C++ -*----------------------------------*\
| =========                 |                                                 |
| \\      /  F ield         | foam-extend: Open Source CFD                    |
|  \\    /   O peration     | Version:     4.1                                |
|   \\  /    A nd           | Web:         http://www.foam-extend.org         |
|    \\/     M anipulation  |                                                 |
\*---------------------------------------------------------------------------*/
FoamFile
{
    version     2.0;
    format      ascii;
    class       cellScalarField;
    location    "16";
    object      T;
}
// * * * * * * * * * * * * * * * * * * * * * * * * * * * * * * * * * * * * * //

dimensions      [0 0 0 0 1 0 0];

internalField   nonuniform 
100
(
(4 -5.703630593e-17 1.624202108e-17)
(4 -1.708141166e-16 7.485896604e-17)
(4 -3.921113812e-17 3.141365771e-17)
(4 1.45343901e-16 -8.083758939e-17)
(4 -6.697996948e-18 1.804041287e-16)
(4 -3.510929651e-16 -4.890037763e-17)
(4 1.127910921e-16 1.386424323e-17)
(4 -3.312553036e-16 7.326682265e-17)
(4 5.140553524e-16 1.57558212e-16)
(4 -1.428710295e-15 -2.014732775e-16)
(4 2.14348992e-16 -1.989334553e-17)
(4 1.670856851e-15 -9.602919133e-17)
(4 7.952778308e-16 3.418736943e-16)
(4 8.054082319e-15 7.104562768e-15)
(4 1.953640067e-13 1.168334144e-13)
(4 3.344019922e-12 2.211853458e-12)
(4 6.03047445e-11 3.642314058e-11)
(4.000000001 8.781655181e-10 5.019242601e-10)
(4.000000011 1.182682322e-08 6.614389459e-09)
(4.000000133 1.441695002e-07 7.464136468e-08)
(4.000001449 1.502143008e-06 7.248162432e-07)
(4.000013802 1.376987155e-05 6.195482303e-06)
(4.000114779 0.0001086649093 4.358794129e-05)
(4.000796669 0.000692704257 0.0002364066069)
(4.004442566 0.003438989297 0.0009680742926)
(4.019692715 0.01324896285 0.003006046778)
(4.069935145 0.04008611285 0.00715223747)
(4.202119934 0.09682057248 0.01312809621)
(4.48406268 0.1897468624 0.01851449996)
(4.978623287 0.3062415776 0.01947488712)
(5.701351964 0.412447393 0.01361196562)
(6.591471055 0.4689949208 0.002480596873)
(7.525005517 0.4549813387 -0.009079497648)
(8.366539187 0.3801232941 -0.01636683384)
(9.024130023 0.2758495932 -0.01773023896)
(9.473047696 0.1752454857 -0.01468986248)
(9.742721536 0.09817639736 -0.01000242175)
(9.886236568 0.04883157339 -0.005791285978)
(9.954327442 0.0217016649 -0.002910129742)
(9.983301126 0.008669395525 -0.001287339955)
(9.994420818 0.003130747494 -0.0005068068875)
(9.998290541 0.001027537702 -0.0001791484341)
(9.999517896 0.0003080638341 -5.729069901e-05)
(9.999874395 8.477385337e-05 -1.668509553e-05)
(9.999969659 2.15096835e-05 -4.45156903e-06)
(9.999993181 5.053842967e-06 -1.093856885e-06)
(9.999998569 1.104043169e-06 -2.487670957e-07)
(9.999999719 2.251065311e-07 -5.259698607e-08)
(9.999999948 4.299254993e-08 -1.038161106e-08)
(9.999999991 7.717467929e-09 -1.920310426e-09)
(9.999999999 1.306226439e-09 -3.340623401e-10)
(10 2.090912082e-10 -5.483750577e-11)
(10 3.174381362e-11 -8.520204174e-12)
(10 4.579264009e-12 -1.255471542e-12)
(10 6.310414214e-13 -1.774416785e-13)
(10 8.28993317e-14 -2.39074184e-14)
(10 7.700443662e-15 -3.205731863e-15)
(10 -1.359929628e-16 -2.393141541e-17)
(10 -2.827992004e-16 -4.35502039e-16)
(10 5.672599749e-16 -3.601227217e-16)
(10 6.815213346e-17 1.820059112e-16)
(10 1.076838538e-16 5.022923745e-16)
(10 -1.214363574e-17 3.666753802e-16)
(10 -5.927116086e-17 -6.325371289e-16)
(10 3.147006247e-17 -6.469005564e-17)
(10 8.095654318e-17 -5.387100362e-16)
(10 1.541519816e-16 3.143686813e-17)
(10 -3.009101741e-17 9.168049864e-17)
(10 9.384702505e-17 5.232982814e-17)
(10 -2.345548747e-16 -8.298194812e-17)
(10 -3.185714325e-16 -2.651047418e-17)
(10 4.446177056e-16 -4.636449049e-16)
(10 4.133968404e-16 -2.9469485e-16)
(10 7.227883768e-17 -5.055671651e-16)
(10 -1.206611551e-16 -5.826536257e-16)
(10 4.343757762e-16 -5.735233414e-16)
(10 5.367113299e-16 5.594155396e-17)
(10 -2.016887301e-17 -1.361507363e-16)
(10 5.93135827e-17 -3.827433565e-16)
(10 1.216099072e-18 -2.265148236e-16)
(10 2.274117303e-16 -6.049467278e-17)
(10 1.899925271e-16 5.612135516e-16)
(10 -2.082970554e-17 2.719017913e-16)
(10 8.407619374e-17 9.536096169e-17)
(10 5.109691455e-17 3.610995403e-16)
(10 3.467009436e-16 -6.672317162e-16)
(10 -2.829693241e-17 2.709760409e-17)
(10 6.736890623e-17 1.664301085e-16)
(10 -1.976126557e-16 -3.358355167e-16)
(10 5.709893951e-16 -2.251974549e-16)
(10 -3.731894205e-17 3.024493683e-16)
(10 1.980500541e-16 2.857110313e-16)
(10 -8.951102627e-17 4.309907609e-17)
(10 1.859142505e-16 -1.51770063e-17)
(10 -1.014456133e-16 -7.868455968e-16)
(10 5.301989945e-16 -1.459697711e-16)
(10 -4.242548698e-16 -1.827237144e-16)
(10 -2.625038002e-16 -8.552769576e-17)
(10 -2.34901605e-16 -2.369278493e-16)
(10 -2.856070934e-16 3.270795843e-15)
)
;

boundaryField
{
    left
    {
        type            dirichlet;
        value           uniform (4 0 0);
    }
    right
    {
        type            dirichlet;
        value           uniform (4 0 0);
    }
    sides
    {
        type            empty;
    }
}


// ************************************************************************* //
