/*--------------------------------*- C++ -*----------------------------------*\
| =========                 |                                                 |
| \\      /  F ield         | foam-extend: Open Source CFD                    |
|  \\    /   O peration     | Version:     4.1                                |
|   \\  /    A nd           | Web:         http://www.foam-extend.org         |
|    \\/     M anipulation  |                                                 |
\*---------------------------------------------------------------------------*/
FoamFile
{
    version     2.0;
    format      ascii;
    class       cellScalarField;
    location    "3";
    object      T;
}
// * * * * * * * * * * * * * * * * * * * * * * * * * * * * * * * * * * * * * //

dimensions      [0 0 0 0 1 0 0];

internalField   nonuniform 
100
(
(3.999998829 -2.741822767e-06 1.50901092e-06)
(4.000106038 0.0001809549477 4.053747365e-05)
(4.00057674 -0.0002451918789 0.0008993970541)
(4.035776928 0.05733130906 0.03772911984)
(4.507687858 0.4813382164 0.1085095433)
(6.07236309 1.036009624 0.03210074898)
(8.115682703 0.9033220469 -0.08141878092)
(9.413304205 0.3974807434 -0.06844709939)
(9.876107693 0.1036383977 -0.02371051495)
(9.980933599 0.01826223283 -0.004900804419)
(9.997709799 0.002405403961 -0.0007143486597)
(9.999773318 0.0002543927189 -8.102719697e-05)
(9.99998075 2.270756475e-05 -7.614210088e-06)
(9.999998555 1.772180764e-06 -6.181948668e-07)
(9.999999902 1.240566304e-07 -4.465801965e-08)
(9.999999994 7.938883598e-09 -2.932353185e-09)
(10 4.712033912e-10 -1.778334466e-10)
(10 2.623553664e-11 -1.008390941e-11)
(10 1.382826821e-12 -5.393252898e-13)
(10 6.79104814e-14 -2.761825095e-14)
(10 1.890813155e-15 -7.85873228e-16)
(10 8.187795575e-17 2.902493072e-17)
(10 -1.718609605e-16 -6.346035504e-16)
(10 1.841250047e-17 5.257322947e-16)
(10 -1.735719972e-15 5.211356978e-16)
(10 1.738819508e-15 -2.303547743e-16)
(10 -1.133601058e-15 1.036009494e-15)
(10 -1.603243574e-16 -5.724610288e-16)
(10 3.603104574e-16 -1.38885209e-16)
(10 -5.984578193e-17 -9.037729322e-17)
(10 3.634708925e-16 -1.278465932e-16)
(10 -1.675801547e-16 -3.525264284e-17)
(10 3.711401248e-16 3.21387835e-16)
(10 -4.577580082e-16 -7.780761528e-17)
(10 2.61971127e-16 2.944102589e-17)
(10 -1.365836193e-16 -1.744382481e-17)
(10 2.188365319e-16 -5.564608655e-16)
(10 1.000862126e-15 -5.078880228e-16)
(10 -1.354184948e-16 7.673887687e-17)
(10 -4.236895983e-18 2.400961845e-18)
(10 -1.325615648e-19 7.511991335e-20)
(10 -4.147510002e-21 2.350308647e-21)
(10 -1.297649077e-22 7.353510526e-23)
(10 -4.060009803e-24 2.300724083e-24)
(10 -1.270272518e-25 7.198373196e-26)
(10 -3.974355601e-27 2.252185608e-27)
(10 -1.243473524e-28 7.046508807e-29)
(10 -3.890508449e-30 2.204671151e-30)
(10 -1.217239909e-31 6.897848307e-32)
(10 -3.808430225e-33 2.158159109e-33)
(10 -1.191559747e-34 6.752324105e-35)
(10 -3.728083609e-36 2.112628334e-36)
(10 -1.16642136e-37 6.609870033e-38)
(10 -3.649432069e-39 2.068058123e-39)
(10 -1.141813318e-40 6.47042132e-41)
(10 -3.572439843e-42 2.024428211e-42)
(10 -1.117724433e-43 6.33391456e-44)
(10 -3.497071923e-45 1.98171876e-45)
(10 -1.09414375e-46 6.200287682e-47)
(10 -3.423294037e-48 1.939910349e-48)
(10 -1.071060548e-49 6.069479918e-50)
(10 -3.351072633e-51 1.898983963e-51)
(10 -1.048464326e-52 5.94143177e-53)
(10 -3.280374851e-54 1.858920981e-54)
(10 -1.0263448e-55 5.816084952e-56)
(10 -3.211168496e-57 1.819703158e-57)
(10 -1.004691888e-58 5.693382326e-59)
(10 -3.143421987e-60 1.781312593e-60)
(10 -9.834956927e-62 5.573267795e-62)
(10 -3.077104292e-63 1.743731696e-63)
(10 -9.627464802e-65 5.455686178e-65)
(10 -3.012184864e-66 1.706943151e-66)
(10 -9.424346611e-68 5.340583119e-68)
(10 -2.948633605e-69 1.6709299e-69)
(10 -9.225507991e-71 5.227905143e-71)
(10 -2.886420993e-72 1.635675219e-72)
(10 -9.030856931e-74 5.117600174e-74)
(10 -2.825518543e-75 1.601163004e-75)
(10 -8.84030619e-77 5.009618975e-77)
(10 -2.765899977e-78 1.567378467e-78)
(10 -8.653778653e-80 4.90391833e-80)
(10 -2.707543599e-81 1.53430953e-81)
(10 -8.471217559e-83 4.800467041e-83)
(10 -2.650436579e-84 1.501949343e-84)
(10 -8.292604067e-86 4.699256194e-86)
(10 -2.594582012e-87 1.470300387e-87)
(10 -8.117985037e-89 4.600315293e-89)
(10 -2.54000966e-90 1.439380703e-90)
(10 -7.947513907e-92 4.503735912e-92)
(10 -2.486791255e-93 1.409232731e-93)
(10 -7.781507079e-95 4.409704188e-95)
(10 -2.435060958e-96 1.379935076e-96)
(10 -7.620517036e-98 4.318542806e-98)
(10 -2.385041098e-99 1.351617261e-99)
(10 -7.465421567e-101 4.230762036e-101)
(10 -2.337072615e-102 1.324477107e-102)
(10 -7.317525923e-104 4.147117953e-104)
(10 -2.291648745e-105 1.29879989e-105)
(10 -7.17867181e-107 4.068674267e-107)
(10 1.011855278e-16 3.527979652e-15)
)
;

boundaryField
{
    left
    {
        type            dirichlet;
        value           uniform (4 0 0);
    }
    right
    {
        type            dirichlet;
        value           uniform (4 0 0);
    }
    sides
    {
        type            empty;
    }
}


// ************************************************************************* //
