/*--------------------------------*- C++ -*----------------------------------*\
| =========                 |                                                 |
| \\      /  F ield         | foam-extend: Open Source CFD                    |
|  \\    /   O peration     | Version:     4.1                                |
|   \\  /    A nd           | Web:         http://www.foam-extend.org         |
|    \\/     M anipulation  |                                                 |
\*---------------------------------------------------------------------------*/
FoamFile
{
    version     2.0;
    format      ascii;
    class       cellScalarField;
    location    "15.9";
    object      T;
}
// * * * * * * * * * * * * * * * * * * * * * * * * * * * * * * * * * * * * * //

dimensions      [0 0 0 0 1 0 0];

internalField   nonuniform 
100
(
(4 -5.703630593e-17 1.624202108e-17)
(4 -9.172734069e-17 3.944780339e-16)
(4 -2.803125477e-16 1.877145392e-17)
(4 -1.773281915e-16 -7.433934528e-17)
(4 1.680099974e-16 1.035262358e-16)
(4 -4.972718881e-16 2.314292214e-16)
(4 3.002416944e-16 -1.928069412e-16)
(4 -1.784646605e-16 -4.537467821e-17)
(4 6.891284388e-16 -1.308930074e-16)
(4 -1.302750968e-15 -1.048643179e-16)
(4 6.397376741e-17 1.321029005e-16)
(4 1.379977405e-15 1.403211049e-16)
(4 7.453036492e-16 1.887292642e-16)
(4 1.414398666e-14 1.144155578e-14)
(4 2.982013253e-13 1.793186128e-13)
(4 5.240769735e-12 3.474647788e-12)
(4 9.273031941e-11 5.522724844e-11)
(4.000000001 1.326423775e-09 7.586755396e-10)
(4.000000016 1.779867323e-08 9.890084921e-09)
(4.000000198 2.130278618e-07 1.091601578e-07)
(4.000002113 2.180277788e-06 1.044224095e-06)
(4.000019821 1.967298662e-05 8.747921789e-06)
(4.000161431 0.0001514101891 5.952169091e-05)
(4.001088419 0.0009323881055 0.0003097467398)
(4.005867336 0.004453155688 0.001213945559)
(4.025112334 0.01649611757 0.00360621579)
(4.086180299 0.04803667079 0.008205782502)
(4.241098956 0.1118219103 0.01438205886)
(4.560113768 0.2115072333 0.01927621497)
(5.101026429 0.3298919099 0.01900744083)
(5.865966278 0.429875681 0.01178875016)
(6.778578105 0.4734443919 2.600543354e-05)
(7.706597674 0.4452870767 -0.01108138961)
(8.518416845 0.3609980726 -0.01722513229)
(9.134520769 0.2544205805 -0.01747569583)
(9.543318484 0.1570998682 -0.01382689171)
(9.782179974 0.08560985265 -0.009063024077)
(9.905912837 0.04145111162 -0.005073088329)
(9.963095866 0.01794623427 -0.002471338181)
(9.986813967 0.00698933975 -0.001061926907)
(9.995693134 0.002462529679 -0.0004067243041)
(9.998709375 0.0007891019776 -0.0001400524282)
(9.999643844 0.0002311480493 -4.367912247e-05)
(9.999909158 6.219185538e-05 -1.241862327e-05)
(9.999978506 1.543940286e-05 -3.237572689e-06)
(9.999995265 3.551730285e-06 -7.780495162e-07)
(9.999999026 7.601794839e-07 -1.731951443e-07)
(9.999999812 1.519541751e-07 -3.587036451e-08)
(9.999999966 2.846994893e-08 -6.940496848e-09)
(9.999999994 5.016526742e-09 -1.259362376e-09)
(9.999999999 8.339467996e-10 -2.150538952e-10)
(10 1.311895463e-10 -3.467478184e-11)
(10 1.958390572e-11 -5.295280219e-12)
(10 2.779504168e-12 -7.671854159e-13)
(10 3.768826459e-13 -1.069446823e-13)
(10 4.922161203e-14 -1.4637223e-14)
(10 1.63206199e-15 -9.999215726e-16)
(10 -5.866870923e-16 -2.979559567e-17)
(10 -7.329751508e-17 -3.833782669e-16)
(10 3.212989194e-16 -3.014828179e-16)
(10 9.287461979e-17 8.750563915e-17)
(10 1.323254077e-16 3.113163802e-16)
(10 5.817042375e-17 2.214713338e-16)
(10 -7.100148307e-17 -4.399312612e-16)
(10 1.303042806e-16 -5.88081126e-16)
(10 4.442116555e-16 -2.963878039e-16)
(10 -1.007370084e-18 8.86471185e-17)
(10 -1.085534747e-17 6.526857296e-17)
(10 6.844498142e-17 2.131281369e-17)
(10 -1.515372043e-16 -3.368665531e-17)
(10 -2.383029504e-16 4.596483949e-17)
(10 2.234030836e-16 -3.486455377e-16)
(10 2.659172936e-16 -2.703701987e-16)
(10 3.307300895e-17 -3.766200323e-16)
(10 3.618775108e-16 -7.888302929e-16)
(10 1.849941949e-16 -4.033144284e-16)
(10 7.24549821e-16 1.058835786e-16)
(10 -2.173220985e-16 5.146742093e-16)
(10 -8.911536777e-17 -1.880807181e-16)
(10 1.036885982e-16 -6.998757848e-16)
(10 2.151078775e-16 -1.298726815e-16)
(10 2.003576739e-16 3.331089884e-16)
(10 4.127440614e-16 2.953831248e-16)
(10 -1.823800074e-17 1.217508026e-16)
(10 4.21790947e-16 3.847117903e-16)
(10 9.810623927e-17 -4.3772026e-16)
(10 1.211322416e-16 -5.3649993e-16)
(10 4.95259313e-16 1.842660746e-16)
(10 -2.336555975e-16 -1.395022461e-16)
(10 3.173371598e-16 -1.954334764e-16)
(10 3.692209158e-17 1.805190574e-16)
(10 1.709073515e-16 1.543813364e-16)
(10 -1.690766818e-16 5.800144908e-16)
(10 3.947147714e-16 1.8124175e-16)
(10 -2.263855763e-16 -4.437485562e-16)
(10 2.821185012e-16 -1.236598316e-16)
(10 -2.627077595e-16 -9.489251534e-17)
(10 -7.817544228e-17 -5.524653632e-16)
(10 -1.274679631e-16 -1.693482531e-16)
(10 -2.397206155e-16 3.422039526e-15)
)
;

boundaryField
{
    left
    {
        type            dirichlet;
        value           uniform (4 0 0);
    }
    right
    {
        type            dirichlet;
        value           uniform (4 0 0);
    }
    sides
    {
        type            empty;
    }
}


// ************************************************************************* //
