/*--------------------------------*- C++ -*----------------------------------*\
| =========                 |                                                 |
| \\      /  F ield         | foam-extend: Open Source CFD                    |
|  \\    /   O peration     | Version:     4.1                                |
|   \\  /    A nd           | Web:         http://www.foam-extend.org         |
|    \\/     M anipulation  |                                                 |
\*---------------------------------------------------------------------------*/
FoamFile
{
    version     2.0;
    format      ascii;
    class       cellScalarField;
    location    "42";
    object      T;
}
// * * * * * * * * * * * * * * * * * * * * * * * * * * * * * * * * * * * * * //

dimensions      [0 0 0 0 1 0 0];

internalField   nonuniform 
100
(
(4 -5.703630593e-17 1.624202108e-17)
(4 -6.916854756e-17 3.655950048e-17)
(4 -5.291904082e-17 2.168010155e-16)
(4 -1.432628608e-16 7.336144103e-17)
(4 2.671511197e-17 -1.138958881e-16)
(4 -4.492954806e-16 1.127265183e-16)
(4 3.819463561e-16 -1.080811814e-16)
(4 -3.134583863e-16 -2.426963418e-16)
(4 8.917080549e-16 1.677050644e-16)
(4 -1.262939745e-15 8.042246277e-17)
(4 2.898718668e-16 7.162333826e-17)
(4 -2.098798143e-16 1.839309691e-16)
(4 8.593874121e-16 -1.025266865e-16)
(4 -2.479144456e-16 1.791852382e-16)
(4 -1.215442966e-16 -1.309156835e-16)
(4 7.260819523e-18 -1.446996532e-16)
(4 1.975098856e-17 1.151351129e-16)
(4 -9.312511087e-17 2.118292743e-16)
(4 1.992225594e-16 1.682852155e-16)
(4 -4.824978153e-16 -5.978761332e-16)
(4 9.627655844e-16 1.367093824e-16)
(4 -1.004258773e-15 2.332771586e-16)
(4 7.937402658e-16 -1.549382968e-16)
(4 -6.694071856e-16 6.492760482e-17)
(4 2.282984117e-16 -1.347678196e-16)
(4 -2.390541381e-16 -1.374668681e-16)
(4 -1.115508279e-16 -1.234073146e-16)
(4 7.165937551e-17 -1.159218436e-16)
(4 -3.221302964e-16 1.673604285e-16)
(4 5.331403263e-16 5.478663687e-17)
(4 -1.640921303e-16 1.040115811e-17)
(4 -4.807544003e-17 2.935951984e-16)
(4 -2.173149801e-16 -1.50479412e-17)
(4 -1.532211462e-16 1.490348764e-16)
(4 2.584318295e-16 2.615433868e-16)
(4 -2.840751817e-16 3.217500452e-16)
(4 7.282747971e-16 -4.220057803e-17)
(4 -8.377129353e-16 -2.324403066e-16)
(4 4.935702082e-16 4.476744615e-17)
(4 5.473596885e-17 -1.97388985e-17)
(4 -2.104561959e-17 -1.065750401e-16)
(4 6.309000767e-17 7.51558681e-18)
(4 -3.053677575e-17 4.48294799e-17)
(4 2.372781096e-17 -1.56829832e-16)
(4 -2.570779787e-16 1.426515315e-16)
(4 4.160940305e-16 1.076261118e-16)
(4 -3.286055537e-16 -2.448192544e-16)
(4 3.455196531e-16 -2.654995637e-16)
(4 -1.125632589e-16 -1.376214407e-16)
(4 -7.96301054e-17 1.418009801e-16)
(4 3.224927855e-16 -4.378257314e-17)
(4 9.811724852e-18 2.158853768e-16)
(4 6.022587008e-17 -3.620505462e-17)
(4 9.03642706e-16 8.454729561e-16)
(4 4.126452546e-15 1.823839409e-15)
(4 4.283232828e-14 1.967610755e-14)
(4 3.609821431e-13 1.570200219e-13)
(4 2.818758969e-12 1.174456956e-12)
(4 2.050143693e-11 8.187658495e-12)
(4 1.389748457e-10 5.301747811e-11)
(4.000000001 8.74752791e-10 3.17378805e-10)
(4.000000006 5.092556938e-09 1.749141816e-09)
(4.000000034 2.732019679e-08 8.840895038e-09)
(4.000000176 1.346378577e-07 4.085452805e-08)
(4.000000836 6.080926173e-07 1.722285746e-07)
(4.00000364 2.51345801e-06 6.61536114e-07)
(4.000014561 9.502573104e-06 2.314290719e-06)
(4.000053512 3.286891231e-05 7.376091075e-06)
(4.000180806 0.000104107284 2.14347149e-05)
(4.000562419 0.0003023473401 5.685417675e-05)
(4.001613431 0.0008064483912 0.0001378132244)
(4.004277272 0.001979232966 0.0003056560579)
(4.010502208 0.004478388105 0.0006209572532)
(4.023940018 0.00936111673 0.001156476526)
(4.050789835 0.01811314185 0.001975328327)
(4.100543027 0.03250785494 0.003093728723)
(4.186207418 0.05422005493 0.004437871394)
(4.323514022 0.08420399383 0.005815547795)
(4.52876315 0.1219840038 0.006926878349)
(4.815398876 0.165134572 0.007427845178)
(5.190001848 0.2092553053 0.007035971095)
(5.648892781 0.2486155127 0.005640958285)
(6.176637513 0.2773803349 0.003371197624)
(6.747284754 0.2910549598 0.0005805155469)
(7.328276246 0.2876455089 -0.002246043701)
(7.886021495 0.2681213768 -0.004631465859)
(8.391555287 0.2360383669 -0.006235898636)
(8.824743397 0.1965063665 -0.006928840116)
(9.176109342 0.1549030167 -0.006786609074)
(9.44621058 0.1157606042 -0.006029776492)
(9.64322025 0.08210904974 -0.00493491132)
(9.779721704 0.05534094736 -0.003755691976)
(9.869662318 0.03548205576 -0.002674902104)
(9.92607927 0.02166432145 -0.001791222686)
(9.959804279 0.01260985484 -0.001131786893)
(9.979036282 0.007003999228 -0.0006767029813)
(9.989508938 0.003716069966 -0.0003837835384)
(9.994959835 0.001885138723 -0.0002068795092)
(9.997674192 0.0009152375886 -0.0001061867409)
(9.998968543 0.0004256523676 -5.198053758e-05)
)
;

boundaryField
{
    left
    {
        type            dirichlet;
        value           uniform (4 0 0);
    }
    right
    {
        type            dirichlet;
        value           uniform (4 0 0);
    }
    sides
    {
        type            empty;
    }
}


// ************************************************************************* //
