/*--------------------------------*- C++ -*----------------------------------*\
| =========                 |                                                 |
| \\      /  F ield         | foam-extend: Open Source CFD                    |
|  \\    /   O peration     | Version:     4.1                                |
|   \\  /    A nd           | Web:         http://www.foam-extend.org         |
|    \\/     M anipulation  |                                                 |
\*---------------------------------------------------------------------------*/
FoamFile
{
    version     2.0;
    format      ascii;
    class       cellScalarField;
    location    "21.6";
    object      T;
}
// * * * * * * * * * * * * * * * * * * * * * * * * * * * * * * * * * * * * * //

dimensions      [0 0 0 0 1 0 0];

internalField   nonuniform 
100
(
(4 -5.703630593e-17 1.624202108e-17)
(4 2.735963534e-17 -4.294337366e-17)
(4 -1.433063569e-16 4.263352118e-17)
(4 6.249281595e-17 2.450126465e-16)
(4 -2.199657048e-16 -6.519773617e-17)
(4 -3.361495952e-16 1.960853412e-17)
(4 3.685982347e-16 1.560949999e-17)
(4 -3.9337418e-16 1.443121946e-16)
(4 8.15012412e-16 1.107906315e-17)
(4 -1.407203369e-15 1.070980035e-16)
(4 4.977301796e-16 -1.318474671e-17)
(4 5.892657815e-16 1.627566678e-16)
(4 -3.353095281e-16 2.944552377e-17)
(4 1.413549562e-16 1.262928048e-17)
(4 3.900914969e-16 8.747382936e-17)
(4 -8.619015441e-17 1.725887956e-16)
(4 7.330189306e-17 2.666153738e-16)
(4 -2.165428721e-16 -2.13832468e-17)
(4 3.217264807e-17 -1.213949668e-17)
(4 6.713800405e-16 4.595157708e-16)
(4 2.549735391e-15 -1.536461421e-16)
(4 1.676510959e-15 2.401319653e-16)
(4 3.191710221e-14 2.118870293e-14)
(4 5.130852118e-13 2.981115816e-13)
(4 7.02744279e-12 3.911819606e-12)
(4 8.753656041e-11 4.673859412e-11)
(4.000000001 9.992511164e-10 5.11311499e-10)
(4.00000001 1.037901675e-08 5.031145133e-09)
(4.000000097 9.670839742e-08 4.41094971e-08)
(4.000000834 8.040114901e-07 3.424758322e-07)
(4.000006411 5.893617535e-06 2.304325274e-06)
(4.000043064 3.723097331e-05 1.306544338e-05)
(4.000248311 0.0001984802073 6.126214439e-05)
(4.001214594 0.0008834998002 0.0002359616336)
(4.005025153 0.003280589736 0.0007474700067)
(4.017647679 0.01021096119 0.001956184125)
(4.052989512 0.02684295969 0.004249433484)
(4.137270314 0.06010248897 0.007682982265)
(4.309812465 0.1155786796 0.01154242825)
(4.615381007 0.192405784 0.01426241153)
(5.086886015 0.2793162614 0.01406424699)
(5.725028867 0.3559926865 0.010080708)
(6.487233319 0.4008169055 0.003137471428)
(7.295234828 0.4009535397 -0.004522817841)
(8.059466207 0.3582481584 -0.01044137964)
(8.707558066 0.2873126429 -0.01318406019)
(9.202594045 0.2077814385 -0.01280086987)
(9.54464846 0.136088028 -0.01039617993)
(9.759321209 0.08105295098 -0.007320772487)
(9.882165466 0.04406920086 -0.004559300156)
(9.94649645 0.0219542163 -0.002543678509)
(9.977434348 0.01005637909 -0.001283082945)
(9.991143737 0.004249745726 -0.0005893689597)
(9.996759289 0.001662172272 -0.0002479775268)
(9.998892076 0.0006035549573 -9.605234831e-05)
(9.99964537 0.0002040640132 -3.440223109e-05)
(9.999893497 6.442492579e-05 -1.143832746e-05)
(9.999969926 1.90440225e-05 -3.543203318e-06)
(9.999991998 5.284601541e-06 -1.025943258e-06)
(9.99999799 1.380066513e-06 -2.785331947e-07)
(9.999999522 3.399873493e-07 -7.110515362e-08)
(9.999999892 7.919503461e-08 -1.711443168e-08)
(9.999999977 1.74807921e-08 -3.893669042e-09)
(9.999999995 3.664096965e-09 -8.393171847e-10)
(9.999999999 7.307950358e-10 -1.718100657e-10)
(10 1.38953919e-10 -3.346850682e-11)
(10 2.523477518e-11 -6.21727002e-12)
(10 4.381257094e-12 -1.103752021e-12)
(10 7.274443191e-13 -1.867449364e-13)
(10 1.162899042e-13 -2.911357249e-14)
(10 1.989241142e-14 -4.007337518e-15)
(10 3.752747732e-15 -1.426896352e-15)
(10 -1.076167881e-15 5.507432191e-16)
(10 8.014462295e-17 3.461635919e-17)
(10 -4.485694071e-17 -1.062654574e-16)
(10 -3.047695105e-17 -1.310329031e-16)
(10 2.047543428e-17 -1.266508658e-16)
(10 2.198276613e-16 -5.966870477e-17)
(10 -2.921128017e-16 -4.55241787e-17)
(10 6.670828606e-17 3.504473215e-17)
(10 3.160974173e-16 2.243089309e-16)
(10 1.752171371e-16 1.177747794e-16)
(10 -1.850185852e-16 -1.273250715e-16)
(10 5.331165672e-17 -7.401704804e-17)
(10 -2.058950594e-16 5.47214454e-16)
(10 1.38588362e-16 6.388459559e-17)
(10 -1.174857471e-16 -8.992754936e-18)
(10 2.421050031e-16 6.747107294e-16)
(10 3.852913212e-16 3.766802925e-16)
(10 -2.098769733e-16 5.035510412e-16)
(10 -3.459936805e-16 4.920016448e-16)
(10 5.327137321e-16 -6.936990192e-17)
(10 -2.146236564e-16 -2.16288115e-16)
(10 -2.173955135e-16 1.055407513e-16)
(10 -1.258113537e-16 -3.987189834e-16)
(10 -2.864654137e-16 -2.135365597e-16)
(10 -1.219407033e-17 2.552626063e-16)
(10 2.000691442e-16 -3.372943839e-16)
(10 -1.616554388e-16 4.874817442e-16)
(10 -4.616421296e-16 3.16109159e-15)
)
;

boundaryField
{
    left
    {
        type            dirichlet;
        value           uniform (4 0 0);
    }
    right
    {
        type            dirichlet;
        value           uniform (4 0 0);
    }
    sides
    {
        type            empty;
    }
}


// ************************************************************************* //
