/*--------------------------------*- C++ -*----------------------------------*\
| =========                 |                                                 |
| \\      /  F ield         | foam-extend: Open Source CFD                    |
|  \\    /   O peration     | Version:     4.1                                |
|   \\  /    A nd           | Web:         http://www.foam-extend.org         |
|    \\/     M anipulation  |                                                 |
\*---------------------------------------------------------------------------*/
FoamFile
{
    version     2.0;
    format      ascii;
    class       cellScalarField;
    location    "2.8";
    object      T;
}
// * * * * * * * * * * * * * * * * * * * * * * * * * * * * * * * * * * * * * //

dimensions      [0 0 0 0 1 0 0];

internalField   nonuniform 10((3.99999838 -7.019627499e-07 1.030508701e-05) (4.000257867 0.0003000738953 -5.979606861e-05) (4.001281234 0.001175575116 0.004916637869) (4.102690746 0.146237839 0.07035563654) (4.943964381 0.7463274914 0.1089425811) (6.911601443 1.114025467 -0.02768546523) (8.799013989 0.7040778189 -0.09408336844) (9.700169494 0.2327011869 -0.04802211578) (9.94841184 0.04749177841 -0.01213301355) (9.993359303 0.00682818235 -0.001977299561));

boundaryField
{
    left
    {
        type            dirichlet;
        value           uniform (4 0 0);
    }
    right
    {
        type            dirichlet;
        value           uniform (4 0 0);
    }
    sides
    {
        type            empty;
    }
}


// ************************************************************************* //
