/*--------------------------------*- C++ -*----------------------------------*\
| =========                 |                                                 |
| \\      /  F ield         | foam-extend: Open Source CFD                    |
|  \\    /   O peration     | Version:     4.1                                |
|   \\  /    A nd           | Web:         http://www.foam-extend.org         |
|    \\/     M anipulation  |                                                 |
\*---------------------------------------------------------------------------*/
FoamFile
{
    version     2.0;
    format      ascii;
    class       cellScalarField;
    location    "1";
    object      T;
}
// * * * * * * * * * * * * * * * * * * * * * * * * * * * * * * * * * * * * * //

dimensions      [0 0 0 0 1 0 0];

internalField   nonuniform 10((4.912130863 -0.1332875868 0.006875022964) (4.59437419 -0.1364026808 0.0001304399144) (4.253308715 -0.1470055498 0.0001766110977) (3.886774485 -0.1583879128 0.000196112331) (3.492995963 -0.1706400816 0.0002165135033) (3.070085687 -0.1838304772 0.000237156753) (2.616040389 -0.1980345309 0.0002572231106) (2.128734631 -0.2133325179 0.0002787892909) (1.605882928 -0.2300939037 1.68509992e-05) (1.047410709 -0.2278284663 0.02066849515));

boundaryField
{
    left
    {
        type            dirichlet;
        value           uniform (5 0 0);
    }
    right
    {
        type            dirichlet;
        value           uniform (1 0 0);
    }
    sides
    {
        type            empty;
    }
}


// ************************************************************************* //
