/*--------------------------------*- C++ -*----------------------------------*\
| =========                 |                                                 |
| \\      /  F ield         | foam-extend: Open Source CFD                    |
|  \\    /   O peration     | Version:     4.1                                |
|   \\  /    A nd           | Web:         http://www.foam-extend.org         |
|    \\/     M anipulation  |                                                 |
\*---------------------------------------------------------------------------*/
FoamFile
{
    version     2.0;
    format      ascii;
    class       volScalarField;
    location    "1";
    object      Tvol;
}
// * * * * * * * * * * * * * * * * * * * * * * * * * * * * * * * * * * * * * //

dimensions      [0 0 0 0 1 0 0];

internalField   nonuniform List<scalar> 10(4.908693352 4.59430897 4.253220409 3.886676429 3.492887706 3.069967109 2.615911777 2.128595236 1.605874503 1.037076461);

boundaryField
{
    left
    {
        type            calculated;
        value           uniform 5;
    }
    right
    {
        type            calculated;
        value           uniform 1;
    }
    sides
    {
        type            empty;
    }
}


// ************************************************************************* //
