/*--------------------------------*- C++ -*----------------------------------*\
| =========                 |                                                 |
| \\      /  F ield         | foam-extend: Open Source CFD                    |
|  \\    /   O peration     | Version:     4.1                                |
|   \\  /    A nd           | Web:         http://www.foam-extend.org         |
|    \\/     M anipulation  |                                                 |
\*---------------------------------------------------------------------------*/
FoamFile
{
    version     2.0;
    format      ascii;
    class       cellScalarField;
    location    "36";
    object      T;
}
// * * * * * * * * * * * * * * * * * * * * * * * * * * * * * * * * * * * * * //

dimensions      [0 0 0 0 1 0 0];

internalField   nonuniform 
100
(
(4 -5.703630593e-17 1.624202108e-17)
(4 -7.55475452e-17 -1.939222846e-17)
(4 1.204562245e-16 -1.189506706e-16)
(4 -8.397646539e-17 -1.077454437e-17)
(4 1.193346777e-17 -6.721950173e-17)
(4 -5.74774301e-16 -2.329383555e-17)
(4 5.519418505e-16 -7.778635798e-17)
(4 -3.649122278e-16 -2.10619889e-16)
(4 9.443452167e-16 -8.906594381e-17)
(4 -1.472019917e-15 8.10474538e-17)
(4 2.210111026e-16 1.581512743e-16)
(4 -4.28094741e-16 -9.611699234e-17)
(4 9.382729032e-16 9.1952887e-17)
(4 -3.599657022e-16 -2.919300494e-16)
(4 5.686833162e-16 -1.617353797e-16)
(4 4.907557001e-17 1.130200901e-16)
(4 -2.009452556e-16 -1.629005599e-16)
(4 5.16453922e-17 -7.47780868e-17)
(4 1.536315575e-16 1.28805863e-16)
(4 -3.822632188e-16 -1.954514822e-16)
(4 7.677075267e-16 7.250479244e-17)
(4 -9.478260898e-16 -1.52610564e-16)
(4 9.796439877e-16 -4.452732195e-17)
(4 -9.756988216e-16 1.505248502e-16)
(4 7.735450365e-16 -6.464884648e-17)
(4 -1.172073836e-15 -6.928664155e-17)
(4 1.14370036e-15 -1.998890077e-16)
(4 -1.088040057e-15 8.919729002e-17)
(4 2.353200427e-16 -9.87532566e-17)
(4 -1.1692155e-16 4.296855318e-16)
(4 6.490830906e-17 -1.105071265e-16)
(4 6.956531898e-17 1.459264671e-17)
(4 -1.01228308e-16 -1.014199777e-16)
(4 -2.862371097e-16 2.128710977e-16)
(4 7.812828621e-16 9.204704952e-17)
(4 -9.936274706e-16 -4.06299834e-17)
(4 6.106634066e-16 -2.326132846e-16)
(4 -3.149573339e-16 8.459324038e-18)
(4 2.239748719e-16 3.83487208e-17)
(4 4.308215822e-17 -1.157703611e-16)
(4 1.200315808e-16 1.784578594e-16)
(4 -9.94555072e-17 9.47708886e-17)
(4 -2.436759501e-17 4.798026693e-17)
(4 -1.785630964e-16 -7.429392123e-17)
(4 1.748304331e-15 1.866594719e-15)
(4 3.226518549e-14 1.567380069e-14)
(4 3.098494749e-13 1.461426588e-13)
(4 2.777263406e-12 1.251946191e-12)
(4 2.309770723e-11 9.991620915e-12)
(4 1.784474019e-10 7.376471368e-11)
(4.000000001 1.274240025e-09 5.007419097e-10)
(4.00000001 8.364329352e-09 3.106855397e-09)
(4.00000006 5.018766109e-08 1.750781834e-08)
(4.00000034 2.737594911e-07 8.909277238e-08)
(4.000001766 1.351309921e-06 4.075775316e-07)
(4.000008324 6.016998815e-06 1.671526943e-06)
(4.000035533 2.413007251e-05 6.137972459e-06)
(4.000137344 8.714255964e-05 2.018256068e-05)
(4.000481079 0.0002836791312 5.948184332e-05)
(4.001529754 0.0008339357152 0.0001573577926)
(4.00442667 0.002218987095 0.0003742907852)
(4.011690408 0.005358379181 0.0008017404019)
(4.028265215 0.01177525457 0.001548486261)
(4.062777234 0.0236147501 0.002698475018)
(4.128527137 0.04333884372 0.004241764806)
(4.24344048 0.07298367998 0.006003750098)
(4.42815877 0.1130735437 0.007618904437)
(4.70192878 0.1615731955 0.008592550197)
(5.076924852 0.2134466415 0.008456043908)
(5.552715815 0.2612838497 0.006962092952)
(6.113111028 0.2970196587 0.004226136657)
(6.727098927 0.3142030577 0.0007318310763)
(7.354104498 0.3099211118 -0.002815585945)
(7.952035928 0.285583422 -0.005724029338)
(8.48547857 0.246290004 -0.007529877906)
(8.931480451 0.1991367476 -0.008104735793)
(9.281526513 0.1512084948 -0.00762759712)
(9.539843558 0.1079998562 -0.006461473644)
(9.719356203 0.07267235152 -0.00500503265)
(9.837009118 0.04613896017 -0.00357990703)
(9.909838395 0.02767902511 -0.002380396879)
(9.952478175 0.01571194167 -0.001478762773)
(9.976122169 0.008450800842 -0.0008615993996)
(9.988555786 0.004312509182 -0.0004723308694)
(9.994764508 0.002090667553 -0.0002442779628)
(9.997712164 0.0009640635441 -0.0001194618478)
(9.999044301 0.0004233700948 -5.535763411e-05)
(9.999618062 0.0001772729606 -2.435222293e-05)
(9.999853851 7.085542124e-05 -1.018717099e-05)
(9.999946409 2.706446563e-05 -4.058901716e-06)
(9.999981153 9.890008886e-06 -1.542567559e-06)
(9.999993638 3.461208883e-06 -5.599681472e-07)
(9.999997937 1.16129956e-06 -1.944178837e-07)
(9.999999357 3.73926433e-07 -6.464053581e-08)
(9.999999807 1.156598723e-07 -2.060567272e-08)
(9.999999944 3.439951245e-08 -6.304881616e-09)
(9.999999984 9.846982471e-09 -1.853747106e-09)
(9.999999996 2.715392581e-09 -5.242802546e-10)
(9.999999999 7.21987652e-10 -1.427768462e-10)
(10 1.852516903e-10 -3.747173198e-11)
)
;

boundaryField
{
    left
    {
        type            dirichlet;
        value           uniform (4 0 0);
    }
    right
    {
        type            dirichlet;
        value           uniform (4 0 0);
    }
    sides
    {
        type            empty;
    }
}


// ************************************************************************* //
