/*--------------------------------*- C++ -*----------------------------------*\
| =========                 |                                                 |
| \\      /  F ield         | foam-extend: Open Source CFD                    |
|  \\    /   O peration     | Version:     4.1                                |
|   \\  /    A nd           | Web:         http://www.foam-extend.org         |
|    \\/     M anipulation  |                                                 |
\*---------------------------------------------------------------------------*/
FoamFile
{
    version     2.0;
    format      ascii;
    class       cellScalarField;
    location    "25.4";
    object      T;
}
// * * * * * * * * * * * * * * * * * * * * * * * * * * * * * * * * * * * * * //

dimensions      [0 0 0 0 1 0 0];

internalField   nonuniform 
100
(
(4 -5.703630593e-17 1.624202108e-17)
(4 -5.531984592e-17 -1.844260184e-17)
(4 -2.135799147e-17 5.446571184e-17)
(4 -1.346226308e-16 1.521285906e-16)
(4 3.355918758e-17 -4.987068656e-17)
(4 -4.908937358e-16 1.766613875e-16)
(4 2.653005812e-16 4.759796085e-17)
(4 -3.924085933e-16 5.110538403e-17)
(4 8.425853666e-16 -5.62131397e-17)
(4 -1.383200828e-15 -1.24057395e-16)
(4 4.06921343e-16 -3.659914999e-17)
(4 1.548089209e-15 8.107113256e-17)
(4 -1.687670185e-15 -1.59591309e-16)
(4 8.542222406e-16 -3.138194164e-16)
(4 4.894455302e-17 2.149803837e-16)
(4 -2.446912233e-16 2.358518337e-17)
(4 1.442857217e-16 -9.061483712e-17)
(4 -1.118264933e-16 1.790238854e-16)
(4 -1.253518794e-16 -1.709387799e-16)
(4 3.011062088e-17 3.205489509e-17)
(4 -1.13724596e-16 -6.915951883e-17)
(4 8.148186062e-17 -6.908067653e-17)
(4 1.085254223e-16 1.610304758e-16)
(4 -4.154733628e-16 -3.613424033e-17)
(4 6.853410444e-16 3.253411132e-16)
(4 -9.238590091e-16 -1.116013653e-17)
(4 6.964343924e-16 1.140110786e-17)
(4 2.487764637e-15 2.099981125e-15)
(4 4.014408339e-14 2.161623496e-14)
(4 4.886228796e-13 2.638029063e-13)
(4 5.788734005e-12 3.022984802e-12)
(4 6.3345182e-11 3.177389329e-11)
(4.000000001 6.37757851e-10 3.055823509e-10)
(4.000000006 5.860883929e-09 2.664449258e-09)
(4.000000051 4.879077807e-08 2.090732619e-08)
(4.000000394 3.650815697e-07 1.46061736e-07)
(4.000002748 2.425901312e-06 8.939495088e-07)
(4.000016954 1.410810965e-05 4.717319916e-06)
(4.000091555 7.096788594e-05 2.12371918e-05)
(4.000429891 0.0003068880287 8.121992085e-05)
(4.001751853 0.001139836192 0.0002639444752)
(4.006208311 0.00364617567 0.0007308274585)
(4.019219924 0.010093221 0.00173002324)
(4.052290589 0.02431529997 0.003511452827)
(4.125865588 0.05128131571 0.006119238172)
(4.269950681 0.09523563677 0.009140768527)
(4.519674651 0.1566093728 0.01162179734)
(4.904696939 0.2292387876 0.01234619526)
(5.435329777 0.300148431 0.0104414111)
(6.092002876 0.3531379914 0.005959883287)
(6.824808712 0.3749420913 7.009819343e-06)
(7.565155103 0.3606843332 -0.005727835242)
(8.244835152 0.3155434945 -0.009750904729)
(8.813846882 0.2519364528 -0.01136659122)
(9.249685112 0.1841914927 -0.01079138754)
(9.556080927 0.1236992648 -0.008828420329)
(9.754367544 0.07654012057 -0.006392043711)
(9.872834498 0.04376039194 -0.004159794861)
(9.93835554 0.02318113648 -0.002458303501)
(9.971989803 0.01140753573 -0.001329150412)
(9.988055286 0.005228166954 -0.000661327435)
(9.995212903 0.002236982618 -0.0003042543445)
(9.998194301 0.0008956685893 -0.0001299575783)
(9.999357961 0.0003363434506 -5.172007775e-05)
(9.999784472 0.0001187173183 -1.92395655e-05)
(9.999931584 3.946863492e-05 -6.70919456e-06)
(9.999979431 1.238445128e-05 -2.199100576e-06)
(9.999994134 3.674829615e-06 -6.792001815e-07)
(9.99999841 1.033125344e-06 -1.981242635e-07)
(9.99999959 2.756862787e-07 -5.470338337e-08)
(9.999999899 6.994983937e-08 -1.432597973e-08)
(9.999999976 1.690456351e-08 -3.565483011e-09)
(9.999999995 3.89741263e-09 -8.448982104e-10)
(9.999999999 8.585921326e-10 -1.909623384e-10)
(10 1.810057361e-10 -4.123774388e-11)
(10 3.656857344e-11 -8.52106818e-12)
(10 7.090456124e-12 -1.6884458e-12)
(10 1.320679639e-12 -3.216922802e-13)
(10 2.325052395e-13 -5.664580419e-14)
(10 4.288372661e-14 -8.994063254e-15)
(10 7.951845906e-15 -1.998013987e-15)
(10 5.373443729e-16 -6.650821215e-16)
(10 1.047615758e-15 -9.450579504e-16)
(10 -1.946962202e-16 -4.534405022e-16)
(10 -1.331494323e-16 -1.790862201e-16)
(10 2.543195304e-16 8.441417444e-18)
(10 2.215382004e-16 -2.793317404e-16)
(10 -1.870852095e-16 -2.414741881e-16)
(10 3.928503039e-17 -4.294486239e-16)
(10 2.268019243e-16 5.310363536e-16)
(10 -3.766896999e-16 2.391310402e-16)
(10 -1.404219021e-16 4.270085615e-16)
(10 -3.65245255e-16 -5.2343192e-16)
(10 -2.520678475e-16 9.487129608e-17)
(10 -1.967803709e-16 -5.066609971e-16)
(10 -7.005510396e-17 -3.243704513e-16)
(10 4.236979311e-16 3.583521337e-16)
(10 -3.329566702e-16 4.03638637e-16)
(10 5.484191061e-17 2.205670134e-16)
(10 -1.954000492e-16 3.44959188e-15)
)
;

boundaryField
{
    left
    {
        type            dirichlet;
        value           uniform (4 0 0);
    }
    right
    {
        type            dirichlet;
        value           uniform (4 0 0);
    }
    sides
    {
        type            empty;
    }
}


// ************************************************************************* //
