/*--------------------------------*- C++ -*----------------------------------*\
| =========                 |                                                 |
| \\      /  F ield         | foam-extend: Open Source CFD                    |
|  \\    /   O peration     | Version:     4.1                                |
|   \\  /    A nd           | Web:         http://www.foam-extend.org         |
|    \\/     M anipulation  |                                                 |
\*---------------------------------------------------------------------------*/
FoamFile
{
    version     2.0;
    format      ascii;
    class       cellScalarField;
    location    "43";
    object      T;
}
// * * * * * * * * * * * * * * * * * * * * * * * * * * * * * * * * * * * * * //

dimensions      [0 0 0 0 1 0 0];

internalField   nonuniform 
100
(
(4 -5.703630593e-17 1.624202108e-17)
(4 -1.410925976e-16 2.141852325e-16)
(4 9.699507535e-17 -1.505076366e-16)
(4 -6.772505608e-17 -1.569072424e-16)
(4 1.040584203e-16 -5.926774715e-17)
(4 -3.553528836e-16 -9.739223711e-17)
(4 3.516394188e-16 5.97996025e-17)
(4 -2.401088145e-16 1.054804024e-16)
(4 6.057288753e-16 1.234815119e-16)
(4 -1.392835353e-15 5.78188727e-17)
(4 -4.742633491e-17 1.15676681e-16)
(4 1.517258222e-16 -6.625429277e-17)
(4 8.852027291e-16 -2.580995369e-17)
(4 -8.523654539e-17 -2.762558943e-16)
(4 -3.786271081e-18 1.440852234e-16)
(4 4.221914459e-17 -1.247808815e-17)
(4 -1.408806663e-16 3.411902044e-16)
(4 2.559174361e-17 -1.120496711e-16)
(4 -2.139981035e-17 9.201073652e-17)
(4 -5.643985326e-17 3.067044138e-16)
(4 -3.961594684e-17 1.320385321e-16)
(4 -4.012450342e-17 -1.452647236e-16)
(4 9.922424181e-17 -9.766424988e-17)
(4 -1.740794167e-16 -1.338700924e-17)
(4 4.439983359e-17 1.592469386e-16)
(4 -1.361125432e-16 -4.609035425e-16)
(4 8.706515185e-16 7.57092261e-17)
(4 -8.830114232e-16 6.927241963e-17)
(4 -3.695844869e-17 -7.676674683e-17)
(4 1.696919752e-16 1.878612786e-16)
(4 -2.953405549e-17 7.241282375e-17)
(4 9.959944502e-17 -2.855341828e-17)
(4 -2.652984587e-17 -6.995937861e-17)
(4 -3.609099105e-16 1.299734629e-16)
(4 1.928102973e-16 1.223438065e-16)
(4 -4.668708748e-16 1.654014023e-16)
(4 7.768063155e-16 -6.989270722e-17)
(4 -9.641666489e-16 -1.835660766e-16)
(4 5.278579711e-16 8.239744633e-17)
(4 -1.181993861e-16 -7.127407542e-17)
(4 -6.832253182e-18 -2.794096254e-17)
(4 1.834384725e-16 -1.370938285e-17)
(4 -4.399672083e-17 -1.918708956e-17)
(4 -1.438692214e-16 2.441077814e-16)
(4 -5.248425174e-16 8.801394374e-17)
(4 9.466883145e-16 2.957834234e-17)
(4 -8.440682806e-16 3.365411753e-16)
(4 7.749842846e-16 1.135036492e-17)
(4 -8.059384722e-16 4.456464672e-17)
(4 1.760037919e-16 3.754223777e-17)
(4 2.627260932e-16 1.621706588e-16)
(4 -6.699418472e-16 -2.463904514e-16)
(4 1.11045288e-15 -1.164793826e-16)
(4 -1.056785268e-15 1.399016429e-16)
(4 6.28030232e-16 6.291806258e-17)
(4 9.104214258e-16 6.303627635e-16)
(4 9.056736509e-15 4.608425194e-15)
(4 8.930424667e-14 4.038324696e-14)
(4 7.170253519e-13 3.037863525e-13)
(4 5.354288089e-12 2.173372218e-12)
(4 3.731038417e-11 1.450487694e-11)
(4 2.422250588e-10 8.982663639e-11)
(4.000000002 1.459575402e-09 5.141317788e-10)
(4.00000001 8.133761236e-09 2.709245257e-09)
(4.000000054 4.178296942e-08 1.310058526e-08)
(4.000000265 1.973391032e-07 5.798290829e-08)
(4.000001204 8.553487926e-07 2.345069564e-07)
(4.000005045 3.399130548e-06 8.659770391e-07)
(4.000019457 1.238247657e-05 2.919551645e-06)
(4.000069078 4.136869105e-05 8.990683876e-06)
(4.000226021 0.0001268807846 2.531115341e-05)
(4.00068252 0.0003577500234 6.52151593e-05)
(4.001905468 0.0009288282223 0.0001539627016)
(4.00492807 0.002224567323 0.0003334344105)
(4.011832689 0.004924148509 0.0006630793557)
(4.026437301 0.01009319219 0.001211701015)
(4.055095159 0.01919434091 0.002035328104)
(4.107359585 0.03393037188 0.003141585038)
(4.196109464 0.05585720197 0.004450433143)
(4.3366814 0.08578785331 0.005770655165)
(4.544720761 0.1231355831 0.006813707994)
(4.832878391 0.1654553127 0.007255806018)
(5.207030868 0.2084579816 0.006836789597)
(5.663143173 0.2466447595 0.005461098079)
(6.185955324 0.2744670455 0.003256641684)
(6.750232599 0.2876726222 0.0005603522496)
(7.324497264 0.2843798732 -0.002169732246)
(7.876298256 0.2655042117 -0.004483015748)
(8.377556698 0.2344099276 -0.006055740493)
(8.808568109 0.1959535965 -0.006758810982)
(9.15979266 0.1552836757 -0.006657413086)
(9.431345586 0.1167883599 -0.005954918224)
(9.630773738 0.08345735981 -0.004911719867)
(9.770042905 0.05672786443 -0.003771040991)
(9.862623598 0.03671609542 -0.002712152726)
(9.921268502 0.02265131191 -0.001835650453)
(9.956702476 0.01333347534 -0.001173330611)
(9.977143985 0.007496029166 -0.0007102855683)
(9.988413951 0.004028755722 -0.0004081760138)
(9.994357577 0.002071886109 -0.0002231185881)
)
;

boundaryField
{
    left
    {
        type            dirichlet;
        value           uniform (4 0 0);
    }
    right
    {
        type            dirichlet;
        value           uniform (4 0 0);
    }
    sides
    {
        type            empty;
    }
}


// ************************************************************************* //
