/*--------------------------------*- C++ -*----------------------------------*\
| =========                 |                                                 |
| \\      /  F ield         | foam-extend: Open Source CFD                    |
|  \\    /   O peration     | Version:     4.1                                |
|   \\  /    A nd           | Web:         http://www.foam-extend.org         |
|    \\/     M anipulation  |                                                 |
\*---------------------------------------------------------------------------*/
FoamFile
{
    version     2.0;
    format      ascii;
    class       cellScalarField;
    location    "1";
    object      T;
}
// * * * * * * * * * * * * * * * * * * * * * * * * * * * * * * * * * * * * * //

dimensions      [0 0 0 0 1 0 0];

internalField   nonuniform 10((5.923373366 1.145014236 0.2424441487) (8.469740457 1.229345748 -0.05526688452) (10.6463584 1.078753389 -0.008296540956) (12.63009221 1.063610748 0.07250182185) (14.67723253 0.7457392092 -0.3061586878) (13.61446618 -1.708763859 -0.1694764535) (10.2060448 -1.698099017 0.04091618993) (7.178530229 -1.519597569 0.01474610562) (4.426939679 -1.464794968 -0.07149105343) (1.70616785 -1.111935869 0.3104725094));

boundaryField
{
    left
    {
        type            dirichlet;
        value           uniform (5 0 0);
    }
    right
    {
        type            dirichlet;
        value           uniform (1 0 0);
    }
    sides1
    {
        type            empty;
    }
    sides2
    {
        type            dirichlet;
        value           uniform (15 0 0);
    }
    sides3
    {
        type            empty;
    }
}


// ************************************************************************* //
