/*--------------------------------*- C++ -*----------------------------------*\
| =========                 |                                                 |
| \\      /  F ield         | foam-extend: Open Source CFD                    |
|  \\    /   O peration     | Version:     4.1                                |
|   \\  /    A nd           | Web:         http://www.foam-extend.org         |
|    \\/     M anipulation  |                                                 |
\*---------------------------------------------------------------------------*/
FoamFile
{
    version     2.0;
    format      ascii;
    class       cellScalarField;
    location    "4.4";
    object      T;
}
// * * * * * * * * * * * * * * * * * * * * * * * * * * * * * * * * * * * * * //

dimensions      [0 0 0 0 1 0 0];

internalField   nonuniform 10((3.999999999 2.047468968e-10 3.27490255e-09) (4.000000076 5.46414195e-08 -9.133414986e-08) (3.999999976 7.049326277e-07 3.894480487e-06) (4.000076456 9.820607074e-05 2.304060102e-05) (4.000679572 0.000575350727 0.0007265731207) (4.017929497 0.02458991246 0.01451215426) (4.214292489 0.2055461704 0.05714248747) (5.018191189 0.6166520621 0.06887634163) (6.57881699 0.8927127244 0.0009759856288) (8.25209135 0.7266168082 -0.05782110796));

boundaryField
{
    left
    {
        type            dirichlet;
        value           uniform (4 0 0);
    }
    right
    {
        type            dirichlet;
        value           uniform (4 0 0);
    }
    sides
    {
        type            empty;
    }
}


// ************************************************************************* //
