/*--------------------------------*- C++ -*----------------------------------*\
| =========                 |                                                 |
| \\      /  F ield         | foam-extend: Open Source CFD                    |
|  \\    /   O peration     | Version:     4.1                                |
|   \\  /    A nd           | Web:         http://www.foam-extend.org         |
|    \\/     M anipulation  |                                                 |
\*---------------------------------------------------------------------------*/
FoamFile
{
    version     2.0;
    format      ascii;
    class       cellScalarField;
    location    "27.8";
    object      T;
}
// * * * * * * * * * * * * * * * * * * * * * * * * * * * * * * * * * * * * * //

dimensions      [0 0 0 0 1 0 0];

internalField   nonuniform 
100
(
(4 -5.703630593e-17 1.624202108e-17)
(4 -2.206976554e-16 -6.704790936e-17)
(4 1.473307045e-16 -3.838485406e-17)
(4 -5.904960457e-17 2.996489389e-16)
(4 -2.202931189e-16 -7.013210826e-18)
(4 -3.951084449e-16 -4.013339416e-17)
(4 4.696833065e-16 -8.183352787e-18)
(4 -4.586121746e-16 1.909829772e-16)
(4 8.493487169e-16 4.305955659e-17)
(4 -1.332171118e-15 1.413441642e-17)
(4 5.120461317e-17 -8.966759037e-17)
(4 3.930819736e-16 -3.808773817e-17)
(4 5.074934746e-16 7.937664497e-17)
(4 1.783165938e-17 -7.357663543e-17)
(4 -1.569265979e-16 3.308592354e-16)
(4 1.553042736e-16 -2.257497236e-16)
(4 -1.77537453e-16 -2.807124979e-17)
(4 6.32152315e-16 2.14073708e-16)
(4 -7.386693863e-16 -1.277206607e-16)
(4 7.526975971e-16 9.770929819e-17)
(4 -9.605729856e-16 -1.71815276e-16)
(4 9.606473934e-16 -4.819858015e-17)
(4 -7.469910815e-16 4.336753115e-17)
(4 7.365005433e-16 -3.608812567e-17)
(4 -9.474084127e-16 2.157032026e-16)
(4 3.337944323e-16 -1.545700127e-16)
(4 -1.176340463e-16 1.552217652e-16)
(4 1.279033397e-16 -6.39730817e-17)
(4 -5.21832433e-16 -3.336138464e-17)
(4 4.927087484e-16 7.103759757e-17)
(4 -1.149727889e-16 2.467720888e-16)
(4 3.180974253e-15 2.815949015e-15)
(4 6.08520411e-14 3.305404838e-14)
(4 7.103538441e-13 3.67101041e-13)
(4 7.666777046e-12 3.833848032e-12)
(4 7.699799187e-11 3.692563182e-11)
(4.000000001 7.119696977e-10 3.257285354e-10)
(4.000000006 6.021171246e-09 2.612305793e-09)
(4.000000049 4.625681159e-08 1.889689316e-08)
(4.000000357 3.200794304e-07 1.219397233e-07)
(4.00000231 1.973394454e-06 6.929189169e-07)
(4.000013319 1.072420682e-05 3.429422533e-06)
(4.000067815 5.09710321e-05 1.468331644e-05)
(4.000303694 0.0002110953479 5.425050175e-05)
(4.001195316 0.000761701803 0.000173059834)
(4.004142956 0.002400400499 0.0004777160825)
(4.012692835 0.006632172386 0.001144306983)
(4.034541771 0.01613980448 0.00238459892)
(4.083956613 0.03476317605 0.004329656687)
(4.183326041 0.0665918023 0.006847187547)
(4.361805842 0.113981396 0.009397872498)
(4.64938662 0.175102224 0.01108590026)
(5.066795943 0.2424470722 0.01098131391)
(5.614683805 0.3037550171 0.00859620998)
(6.267431368 0.3456374313 0.004231060568)
(6.975746643 0.358444685 -0.001060940812)
(7.678096868 0.3399015685 -0.00590499007)
(8.316458306 0.2956379839 -0.009181930413)
(8.8498361 0.2365475806 -0.01042463828)
(9.260668479 0.1745979727 -0.009857169607)
(9.553154244 0.1191999113 -0.008136600501)
(9.74610764 0.07546237085 -0.006000730093)
(9.864345976 0.04440761454 -0.004008631881)
(9.931803513 0.02434831049 -0.002447976262)
(9.9677154 0.01246629237 -0.001375785443)
(9.985593244 0.005973095398 -0.0007153173497)
(9.99393316 0.002683850494 -0.0003455510853)
(9.997586144 0.001133145464 -0.0001556585827)
(9.999091413 0.0004504263588 -6.559403631e-05)
(9.999676035 0.00016888348 -2.593115686e-05)
(9.99989043 5.983615969e-05 -9.642022592e-06)
(9.999964801 2.006854928e-05 -3.3801476e-06)
(9.999989245 6.382372121e-06 -1.119653474e-06)
(9.999996871 1.927865544e-06 -3.51163887e-07)
(9.999999132 5.539768654e-07 -1.044863657e-07)
(9.99999977 1.51668865e-07 -2.954830101e-08)
(9.999999942 3.962226238e-08 -7.955867086e-09)
(9.999999986 9.891162427e-09 -2.042899776e-09)
(9.999999997 2.362796851e-09 -5.010737403e-10)
(9.999999999 5.408326374e-10 -1.175715332e-10)
(10 1.187782328e-10 -2.643026835e-11)
(10 2.505733584e-11 -5.700519311e-12)
(10 5.081541829e-12 -1.180931595e-12)
(10 9.909517661e-13 -2.3404226e-13)
(10 1.882675895e-13 -4.421578236e-14)
(10 3.492408019e-14 -8.26934445e-15)
(10 9.50136391e-15 -2.560952219e-15)
(10 -3.15928753e-16 2.879379534e-16)
(10 -4.037211173e-16 7.32248824e-17)
(10 -8.647506721e-16 -5.402848255e-16)
(10 1.262465766e-15 -5.378435746e-16)
(10 1.153447982e-16 3.595375956e-16)
(10 -3.069413813e-16 -6.739778009e-17)
(10 -1.019985604e-16 5.868923092e-17)
(10 4.537694585e-17 -2.305309568e-16)
(10 3.29895041e-16 -1.713965685e-16)
(10 1.669444972e-16 -1.447016342e-16)
(10 1.413387078e-16 -1.588565993e-16)
(10 -2.503282091e-16 4.328434528e-16)
(10 -1.515938429e-15 4.049929573e-15)
)
;

boundaryField
{
    left
    {
        type            dirichlet;
        value           uniform (4 0 0);
    }
    right
    {
        type            dirichlet;
        value           uniform (4 0 0);
    }
    sides
    {
        type            empty;
    }
}


// ************************************************************************* //
