/*--------------------------------*- C++ -*----------------------------------*\
| =========                 |                                                 |
| \\      /  F ield         | foam-extend: Open Source CFD                    |
|  \\    /   O peration     | Version:     4.1                                |
|   \\  /    A nd           | Web:         http://www.foam-extend.org         |
|    \\/     M anipulation  |                                                 |
\*---------------------------------------------------------------------------*/
FoamFile
{
    version     2.0;
    format      ascii;
    class       cellScalarField;
    location    "4.8";
    object      T;
}
// * * * * * * * * * * * * * * * * * * * * * * * * * * * * * * * * * * * * * //

dimensions      [0 0 0 0 1 0 0];

internalField   nonuniform 10((4 -4.439768446e-10 -8.889380262e-11) (4.000000013 2.979031186e-08 1.11197016e-08) (3.999999985 -3.598942396e-07 -4.418053242e-08) (4.000008636 1.720227562e-05 1.240143964e-05) (4.000179035 0.00014871714 4.942378551e-05) (4.002376363 0.003107929659 0.002727020781) (4.047172079 0.05562330507 0.02377323766) (4.36391524 0.2939358153 0.06208803239) (5.341941523 0.6851695207 0.05363965482) (6.936900735 0.8564066236 -0.01347233619));

boundaryField
{
    left
    {
        type            dirichlet;
        value           uniform (4 0 0);
    }
    right
    {
        type            dirichlet;
        value           uniform (4 0 0);
    }
    sides
    {
        type            empty;
    }
}


// ************************************************************************* //
