/*--------------------------------*- C++ -*----------------------------------*\
| =========                 |                                                 |
| \\      /  F ield         | foam-extend: Open Source CFD                    |
|  \\    /   O peration     | Version:     4.1                                |
|   \\  /    A nd           | Web:         http://www.foam-extend.org         |
|    \\/     M anipulation  |                                                 |
\*---------------------------------------------------------------------------*/
FoamFile
{
    version     2.0;
    format      ascii;
    class       cellScalarField;
    location    "47.8";
    object      T;
}
// * * * * * * * * * * * * * * * * * * * * * * * * * * * * * * * * * * * * * //

dimensions      [0 0 0 0 1 0 0];

internalField   nonuniform 
100
(
(4 -5.703630593e-17 1.624202108e-17)
(4 -1.849078967e-16 -1.429345621e-17)
(4 1.519770702e-16 -1.290809901e-16)
(4 -4.217066513e-18 7.11284904e-17)
(4 -1.18653061e-16 4.15964451e-17)
(4 -3.342566772e-16 5.634720896e-17)
(4 4.420550097e-16 3.125139862e-17)
(4 -3.773856404e-16 -1.034238272e-16)
(4 7.912096438e-16 6.606546042e-17)
(4 -1.24541279e-15 8.311311616e-17)
(4 5.658591591e-17 2.094062745e-17)
(4 2.492732355e-16 -2.19905996e-16)
(4 8.818259548e-16 1.129595561e-16)
(4 -7.607260402e-16 1.082421091e-16)
(4 3.549981846e-16 -3.071537379e-17)
(4 -1.592962867e-17 9.265654974e-18)
(4 -2.484211962e-17 -3.683841006e-17)
(4 -1.694711033e-17 -6.577596147e-17)
(4 5.615421734e-17 2.461331221e-16)
(4 -8.007651707e-17 1.714954594e-16)
(4 -9.790765462e-17 -1.058444582e-16)
(4 -7.525633668e-17 6.921617669e-17)
(4 -1.933992153e-16 -5.229671655e-17)
(4 -7.712943913e-19 1.286522111e-16)
(4 1.950878763e-17 7.52068438e-17)
(4 3.073729638e-17 5.088782038e-17)
(4 7.092495782e-17 1.856688602e-16)
(4 -6.643267067e-17 1.485887629e-16)
(4 -5.968676318e-16 -5.622310346e-18)
(4 3.138891769e-16 6.508260545e-17)
(4 -9.665062497e-17 -1.696397126e-16)
(4 1.50066819e-16 -2.02589808e-16)
(4 -2.569773156e-17 -2.965877161e-17)
(4 -2.314588059e-16 1.093530887e-16)
(4 1.486706598e-16 5.938455657e-17)
(4 -1.410025574e-16 3.258005115e-17)
(4 7.982857424e-16 4.337642533e-17)
(4 -8.35877111e-16 3.425734164e-17)
(4 3.954401795e-16 -4.773437728e-17)
(4 -2.473908122e-16 -1.485715207e-16)
(4 7.221022491e-17 -6.231830511e-17)
(4 -2.149458496e-18 -5.492877939e-17)
(4 -3.555688262e-17 8.488814323e-17)
(4 -4.447409926e-17 5.897378574e-17)
(4 -3.699394652e-16 -4.547873437e-17)
(4 8.55454767e-16 -1.6654105e-16)
(4 -9.279818788e-16 6.554547349e-17)
(4 9.773443063e-16 -5.208317343e-17)
(4 -8.687224796e-16 8.561115749e-17)
(4 5.935512628e-16 -1.220245826e-17)
(4 -7.258516804e-17 3.208066221e-16)
(4 -1.132484163e-16 1.401645554e-16)
(4 7.833378634e-17 -1.746266844e-16)
(4 5.829769457e-17 -6.257778973e-17)
(4 -2.46776163e-16 -1.045486801e-16)
(4 8.027229551e-17 -7.094356472e-17)
(4 8.006819239e-17 -4.908048729e-17)
(4 -6.886299693e-17 -2.712625179e-17)
(4 -8.674282071e-17 8.14373163e-17)
(4 -1.416653662e-16 -1.251793134e-16)
(4 3.857612964e-17 1.201007689e-16)
(4 8.381360867e-18 8.429483629e-17)
(4 -4.993998285e-17 1.738863646e-16)
(4 7.531846307e-16 6.38911674e-16)
(4 1.020221115e-14 4.899237182e-15)
(4 8.971719774e-14 3.677014066e-14)
(4 6.399096892e-13 2.565137343e-13)
(4 4.369845308e-12 1.679745046e-12)
(4 2.796024027e-11 1.029557597e-11)
(4 1.672005633e-10 5.87791746e-11)
(4.000000001 9.322823141e-10 3.117976564e-10)
(4.000000006 4.83429794e-09 1.532591115e-09)
(4.000000031 2.32626968e-08 6.965531575e-09)
(4.000000144 1.037091747e-07 2.922697701e-08)
(4.000000621 4.27906911e-07 1.131109541e-07)
(4.000002491 1.63324685e-06 4.035984834e-07)
(4.000009273 5.766967949e-06 1.327875284e-06)
(4.000032047 1.884737797e-05 4.03020598e-06)
(4.00010293 5.705962298e-05 1.129205555e-05)
(4.00030758 0.0001602001499 2.923341383e-05)
(4.000856353 0.000417653504 6.999462616e-05)
(4.00222489 0.001012525666 0.000155147551)
(4.005403409 0.002286035914 0.0003186421731)
(4.012288976 0.004814088398 0.0006068162101)
(4.026222258 0.00947044486 0.001072068273)
(4.052598785 0.01743086766 0.001757386952)
(4.099380565 0.03006191028 0.00267207547)
(4.17723144 0.04865251583 0.003764548997)
(4.298960844 0.07399637112 0.004903807553)
(4.478051725 0.1059104229 0.005883270406)
(4.72629655 0.1428491829 0.006455722617)
(5.050920169 0.1818008572 0.006396077051)
(5.451897025 0.2185961413 0.005574147928)
(5.920306747 0.2486269561 0.004010410346)
(6.438403164 0.2678095081 0.001890189518)
(6.981612599 0.2735090133 -0.000473526482)
(7.522085553 0.2651335703 -0.002717848771)
(8.032935402 0.2442133265 -0.004521158549)
(8.49210537 0.2139612437 -0.005676338986)
(8.884975663 0.1784833743 -0.006124031309)
)
;

boundaryField
{
    left
    {
        type            dirichlet;
        value           uniform (4 0 0);
    }
    right
    {
        type            dirichlet;
        value           uniform (4 0 0);
    }
    sides
    {
        type            empty;
    }
}


// ************************************************************************* //
