/*--------------------------------*- C++ -*----------------------------------*\
| =========                 |                                                 |
| \\      /  F ield         | foam-extend: Open Source CFD                    |
|  \\    /   O peration     | Version:     4.1                                |
|   \\  /    A nd           | Web:         http://www.foam-extend.org         |
|    \\/     M anipulation  |                                                 |
\*---------------------------------------------------------------------------*/
FoamFile
{
    version     2.0;
    format      ascii;
    class       cellScalarField;
    location    "44.4";
    object      T;
}
// * * * * * * * * * * * * * * * * * * * * * * * * * * * * * * * * * * * * * //

dimensions      [0 0 0 0 1 0 0];

internalField   nonuniform 
100
(
(4 -5.703630593e-17 1.624202108e-17)
(4 -9.647640008e-17 -8.000724805e-20)
(4 -3.219554226e-16 -1.285375237e-16)
(4 3.009684853e-17 1.679268277e-16)
(4 5.165455617e-17 -8.672027957e-17)
(4 -6.252300177e-16 8.929439846e-17)
(4 4.643162179e-16 7.470103558e-17)
(4 -3.993827583e-16 3.577949405e-16)
(4 7.38602858e-16 4.390772678e-17)
(4 -1.345131167e-15 -1.207704309e-16)
(4 -3.471100459e-17 1.249428072e-17)
(4 4.073627985e-16 -1.232045737e-17)
(4 6.314468029e-16 8.763071218e-17)
(4 -1.643906334e-16 1.642202334e-16)
(4 5.038726235e-16 8.952357598e-17)
(4 -7.774798733e-16 -2.648396985e-16)
(4 7.343506233e-16 -3.528805203e-16)
(4 3.48626506e-16 -1.795710448e-16)
(4 1.740994588e-17 5.220049471e-18)
(4 -2.103457738e-17 1.663423748e-16)
(4 -1.140475945e-17 3.218819498e-16)
(4 -1.628092462e-16 1.419528257e-16)
(4 -3.934259614e-18 2.582368277e-16)
(4 -3.025275977e-17 1.470881163e-16)
(4 -3.587000746e-17 -2.986736334e-17)
(4 -7.208482716e-17 -6.436714299e-17)
(4 -3.388922167e-17 4.391776786e-17)
(4 -1.165581987e-16 1.544790274e-16)
(4 -5.801616198e-16 1.200880211e-16)
(4 4.973994058e-16 -1.210504182e-16)
(4 3.688157691e-17 -1.302283663e-16)
(4 -1.02635443e-16 4.306697426e-17)
(4 3.373902677e-16 6.372289169e-17)
(4 -1.364773292e-15 1.104256338e-16)
(4 8.525330915e-16 9.609148113e-17)
(4 -8.376862436e-16 1.893178848e-17)
(4 9.432991715e-16 -1.45076968e-17)
(4 -8.9432372e-16 5.169166254e-17)
(4 3.472637678e-16 1.478730154e-16)
(4 -2.907791998e-16 1.837867966e-16)
(4 -4.217874266e-17 7.060178766e-17)
(4 -7.511241878e-17 -6.242027653e-19)
(4 -1.256989727e-16 -1.322331328e-16)
(4 -1.677287407e-16 -1.877173113e-16)
(4 -4.333002793e-17 1.399056122e-16)
(4 5.298779779e-16 2.650157599e-16)
(4 -9.431297836e-16 1.567389075e-17)
(4 7.988114177e-16 3.35452116e-17)
(4 -6.646191767e-16 1.042764043e-16)
(4 1.37477645e-16 1.663117389e-16)
(4 -2.049391529e-16 -1.329638511e-16)
(4 7.881366329e-17 -8.632788328e-17)
(4 8.040188757e-17 4.737457945e-17)
(4 -1.588113483e-16 -7.601301059e-17)
(4 2.901668875e-17 -1.221259262e-16)
(4 -7.191176167e-17 -9.909256053e-17)
(4 1.943033209e-16 -1.564379605e-16)
(4 7.910248703e-16 5.013835309e-16)
(4 5.098407288e-15 1.985904955e-15)
(4 4.28128894e-14 2.021592073e-14)
(4 3.568821008e-13 1.513917722e-13)
(4 2.657305785e-12 1.075547452e-12)
(4 1.844291779e-11 7.155850878e-12)
(4 1.195050044e-10 4.430596615e-11)
(4.000000001 7.206004113e-10 2.542194397e-10)
(4.000000005 4.029319915e-09 1.346986454e-09)
(4.000000027 2.08293271e-08 6.570235559e-09)
(4.000000132 9.929775324e-08 2.943060767e-08)
(4.000000609 4.35755421e-07 1.208630248e-07)
(4.000002586 1.758463846e-06 4.546467764e-07)
(4.00001013 6.523393271e-06 1.566200638e-06)
(4.000036623 2.225346226e-05 4.942600487e-06)
(4.0001223 6.986482618e-05 1.429919069e-05)
(4.000377695 0.000202103604 3.796094787e-05)
(4.001080393 0.0005394829463 9.257796087e-05)
(4.002867641 0.001331005026 0.0002076363735)
(4.007076646 0.003040433518 0.0004287118706)
(4.016270518 0.006442032422 0.0008155518185)
(4.034930063 0.01268308989 0.001430166459)
(4.070178945 0.02324443243 0.002312060159)
(4.13226292 0.03972531444 0.00344372702)
(4.234388814 0.06341819554 0.004718214505)
(4.391543373 0.09472834792 0.005927239161)
(4.618134845 0.1326060103 0.006786874903)
(4.924721619 0.1742355942 0.007004983416)
(5.314574922 0.2152038359 0.006374014554)
(5.781136332 0.2502234211 0.004855082842)
(6.307366657 0.2742668357 0.002615959421)
(6.867486244 0.2837702234 1.522293598e-06)
(7.430840462 0.2775036409 -0.002556316256)
(7.966905004 0.2568144978 -0.004655854114)
(8.450083989 0.2251861476 -0.006026306839)
(8.863091551 0.187301017 -0.006578373257)
(9.198253335 0.1479461909 -0.00639471706)
(9.456758921 0.1110980147 -0.005674567554)
(9.646456837 0.07939754606 -0.004660192498)
(9.77903662 0.05405702736 -0.003572373787)
(9.867374417 0.03509740261 -0.002571208226)
(9.923542673 0.02175189623 -0.001745048288)
(9.957655675 0.01288038987 -0.001120481783)
)
;

boundaryField
{
    left
    {
        type            dirichlet;
        value           uniform (4 0 0);
    }
    right
    {
        type            dirichlet;
        value           uniform (4 0 0);
    }
    sides
    {
        type            empty;
    }
}


// ************************************************************************* //
