/*--------------------------------*- C++ -*----------------------------------*\
| =========                 |                                                 |
| \\      /  F ield         | foam-extend: Open Source CFD                    |
|  \\    /   O peration     | Version:     4.1                                |
|   \\  /    A nd           | Web:         http://www.foam-extend.org         |
|    \\/     M anipulation  |                                                 |
\*---------------------------------------------------------------------------*/
FoamFile
{
    version     2.0;
    format      ascii;
    class       cellScalarField;
    location    "21.9";
    object      T;
}
// * * * * * * * * * * * * * * * * * * * * * * * * * * * * * * * * * * * * * //

dimensions      [0 0 0 0 1 0 0];

internalField   nonuniform 
100
(
(4 -5.703630593e-17 1.624202108e-17)
(4 1.276630475e-16 -6.563971158e-17)
(4 -1.630980481e-16 1.623221939e-16)
(4 -6.360039157e-17 -4.940939929e-17)
(4 3.90173779e-17 -1.711311108e-16)
(4 -4.396139387e-16 1.119261339e-16)
(4 3.892301806e-16 1.413045525e-16)
(4 -3.344702154e-16 4.575613258e-18)
(4 8.825749656e-16 -8.866250743e-17)
(4 -1.225861975e-15 9.57561416e-17)
(4 1.932441724e-16 9.854588506e-17)
(4 5.145060418e-16 -1.394210509e-16)
(4 -6.916039634e-18 2.389044348e-16)
(4 -4.070877016e-16 1.95990873e-16)
(4 7.314148825e-16 -1.683630724e-16)
(4 -4.820754511e-16 3.058090431e-16)
(4 8.626518961e-17 -3.773969989e-17)
(4 -2.697504335e-17 -3.556896863e-17)
(4 -3.49562804e-17 2.53447393e-17)
(4 1.649250802e-17 1.292927325e-16)
(4 1.530326341e-15 4.264827679e-16)
(4 1.959445882e-15 3.382372527e-16)
(4 6.894057195e-15 5.591309503e-15)
(4 1.456063293e-13 8.532257028e-14)
(4 2.056417124e-12 1.16139456e-12)
(4 2.644632847e-11 1.431706263e-11)
(4 3.110425625e-10 1.617164595e-10)
(4.000000003 3.348859305e-09 1.658182987e-09)
(4.000000032 3.254437772e-08 1.5204536e-08)
(4.000000289 2.830853392e-07 1.240770344e-07)
(4.000002332 2.188063573e-06 8.884890024e-07)
(4.000016599 1.475389622e-05 5.437821292e-06)
(4.000102394 8.485616553e-05 2.779483578e-05)
(4.000539296 0.0004100376358 0.0001172834147)
(4.002409154 0.00165650479 0.0004077801891)
(4.009135414 0.005608465231 0.001172041723)
(4.029568419 0.01601470466 0.002798047895)
(4.082349916 0.03887217393 0.005569867011)
(4.199173956 0.08086551748 0.009254381054)
(4.422419607 0.145323685 0.01277477015)
(4.79342204 0.2272923073 0.01441377195)
(5.333239085 0.3115240098 0.01269004301)
(6.02524221 0.3765333184 0.007403939353)
(6.811330264 0.4036930585 1.058643482e-05)
(7.606867324 0.3859889688 -0.007072681725)
(8.32770254 0.3307859402 -0.01174662943)
(8.915211636 0.255267437 -0.01318311413)
(9.347812703 0.1781646614 -0.01190408927)
(9.636772145 0.1129319807 -0.009159204518)
(9.812543607 0.06526439164 -0.006172721464)
(9.910272496 0.0345150616 -0.003703683397)
(9.960113396 0.01676279189 -0.002000415582)
(9.983506835 0.007501572511 -0.0009806077952)
(9.993644602 0.003103315378 -0.0004391232645)
(9.997713417 0.001190440652 -0.0001806133953)
(9.999230311 0.0004247011363 -6.855192449e-05)
(9.999757101 0.0001413144706 -2.410993568e-05)
(9.999927985 4.397457963e-05 -7.886840874e-06)
(9.9999799 1.283115075e-05 -2.407828186e-06)
(9.999994707 3.519409727e-06 -6.882314951e-07)
(9.999998683 9.096238334e-07 -1.847166699e-07)
(9.999999689 2.220477972e-07 -4.668031931e-08)
(9.999999931 5.130826064e-08 -1.113625372e-08)
(9.999999985 1.124625141e-08 -2.514077684e-09)
(9.999999997 2.34311276e-09 -5.38331321e-10)
(9.999999999 4.649322582e-10 -1.095732445e-10)
(10 8.802658968e-11 -2.124398504e-11)
(10 1.592341876e-11 -3.929335349e-12)
(10 2.758943712e-12 -6.958816117e-13)
(10 4.575702438e-13 -1.185115457e-13)
(10 7.219692396e-14 -1.784701004e-14)
(10 1.413297417e-14 -3.791822655e-15)
(10 1.468422323e-15 -1.081446694e-15)
(10 2.815963164e-16 1.171685728e-16)
(10 -3.006174682e-16 -9.731440666e-17)
(10 1.048121889e-15 -8.841692749e-16)
(10 1.456832008e-16 -2.467334948e-16)
(10 2.628341251e-17 -3.432409324e-16)
(10 5.200889221e-17 -1.518619302e-16)
(10 1.329058659e-16 2.617536528e-16)
(10 -1.491965076e-16 6.419469559e-16)
(10 3.176887405e-16 6.227543647e-16)
(10 -2.133647251e-16 -2.767875032e-16)
(10 3.847112772e-16 -9.263336341e-17)
(10 -2.675404385e-16 -1.11414093e-16)
(10 9.459219933e-17 -2.416873065e-16)
(10 -1.375998894e-16 -3.244404933e-16)
(10 4.912775915e-17 3.679309519e-17)
(10 2.12727508e-16 5.318607901e-16)
(10 1.086367013e-16 -2.772780992e-16)
(10 8.130794002e-17 -1.506231133e-16)
(10 3.516792582e-16 -6.393299521e-16)
(10 -7.030269007e-17 2.356174689e-16)
(10 -3.433963191e-16 2.989822446e-16)
(10 -4.734952868e-16 -2.646619025e-16)
(10 -3.121521267e-16 -4.366292059e-17)
(10 -1.711123376e-16 7.219574496e-16)
(10 -1.700227014e-16 -3.240626663e-16)
(10 2.290341136e-16 -2.895899137e-16)
(10 -8.28411981e-16 3.969591703e-15)
)
;

boundaryField
{
    left
    {
        type            dirichlet;
        value           uniform (4 0 0);
    }
    right
    {
        type            dirichlet;
        value           uniform (4 0 0);
    }
    sides
    {
        type            empty;
    }
}


// ************************************************************************* //
