/*--------------------------------*- C++ -*----------------------------------*\
| =========                 |                                                 |
| \\      /  F ield         | foam-extend: Open Source CFD                    |
|  \\    /   O peration     | Version:     4.1                                |
|   \\  /    A nd           | Web:         http://www.foam-extend.org         |
|    \\/     M anipulation  |                                                 |
\*---------------------------------------------------------------------------*/
FoamFile
{
    version     2.0;
    format      ascii;
    class       cellScalarField;
    location    "42.1";
    object      T;
}
// * * * * * * * * * * * * * * * * * * * * * * * * * * * * * * * * * * * * * //

dimensions      [0 0 0 0 1 0 0];

internalField   nonuniform 
100
(
(4 -5.703630593e-17 1.624202108e-17)
(4 -1.079144766e-16 3.18445459e-17)
(4 -1.023562055e-16 2.871336451e-16)
(4 -2.27432327e-16 6.498559107e-17)
(4 9.091348046e-18 2.080126128e-17)
(4 -4.628097604e-16 2.042608306e-16)
(4 4.248139987e-16 -1.037609154e-16)
(4 -5.154322238e-16 -2.375012462e-16)
(4 1.246363054e-15 -7.014938513e-17)
(4 -1.396385397e-15 7.185217818e-17)
(4 3.286307547e-16 8.69752582e-17)
(4 -3.50869846e-16 2.069691908e-16)
(4 9.413584452e-16 -1.488934703e-16)
(4 -1.523250253e-16 3.441376431e-16)
(4 -1.143954839e-16 -9.802067992e-17)
(4 -6.931057798e-17 1.670319601e-18)
(4 -1.816068761e-17 1.855482976e-16)
(4 -1.889960987e-16 2.839645195e-16)
(4 1.430190358e-16 2.182539302e-16)
(4 -1.80415843e-16 -4.928971544e-16)
(4 8.405464945e-16 4.48997569e-17)
(4 -8.124817699e-16 -5.736863576e-17)
(4 5.75610425e-16 5.95061902e-17)
(4 -7.368844953e-16 4.822412641e-17)
(4 5.109230254e-16 -6.18419128e-17)
(4 -2.649772977e-16 1.423939532e-16)
(4 -1.161419801e-16 -7.593539155e-17)
(4 1.657092123e-17 6.388273944e-17)
(4 -5.467090101e-16 1.689519143e-16)
(4 5.86922018e-16 4.329972851e-17)
(4 -2.452974217e-16 -3.218003305e-17)
(4 -5.000177788e-17 -7.826733542e-17)
(4 5.772662723e-17 2.464114169e-18)
(4 -3.23255903e-16 2.080540633e-16)
(4 -1.69772896e-17 2.012136107e-16)
(4 -3.292983889e-16 -1.47784691e-16)
(4 8.056363885e-16 9.291537064e-18)
(4 -8.587067964e-16 1.245251919e-16)
(4 5.619559278e-16 -1.559402401e-19)
(4 5.821518679e-17 2.157441383e-18)
(4 -2.42102345e-17 -1.52033945e-16)
(4 1.045575772e-16 2.203324805e-17)
(4 -6.83069414e-17 6.379118981e-17)
(4 -1.29509168e-17 -2.751751787e-17)
(4 -4.311642151e-16 1.440955186e-16)
(4 7.199678746e-16 5.781629373e-17)
(4 -3.412421483e-16 -5.787477329e-17)
(4 6.105504273e-16 -1.612536378e-16)
(4 -1.449411575e-16 -8.001293999e-17)
(4 -2.956273007e-16 1.167977313e-16)
(4 4.28085174e-16 -8.590628026e-17)
(4 -3.225866083e-17 3.166705638e-16)
(4 7.471059642e-17 -2.286165964e-17)
(4 4.508891437e-16 5.485831276e-16)
(4 3.285595613e-15 1.194599366e-15)
(4 2.914798218e-14 1.426024967e-14)
(4 2.549104755e-13 1.108984653e-13)
(4 2.008572507e-12 8.415488891e-13)
(4 1.474787955e-11 5.925757211e-12)
(4 1.009788413e-10 3.878135368e-11)
(4.000000001 6.424601855e-10 2.348441686e-10)
(4.000000005 3.783468138e-09 1.310318864e-09)
(4.000000026 2.054670049e-08 6.710018438e-09)
(4.000000133 1.025663248e-07 3.143569405e-08)
(4.00000064 4.694730078e-07 1.344204192e-07)
(4.000002825 1.967349362e-06 5.239057315e-07)
(4.000011453 7.54273425e-06 1.860229604e-06)
(4.000042656 2.646119304e-05 6.018541064e-06)
(4.000146067 8.500798761e-05 1.775562521e-05)
(4.000460453 0.0002503952204 4.781368096e-05)
(4.001338469 0.0006773319627 0.0001176690906)
(4.003594863 0.001685678968 0.0002649709071)
(4.008940474 0.003867139831 0.0005465681258)
(4.020637701 0.00819439016 0.001033673603)
(4.044325196 0.01607054284 0.001793220006)
(4.088803789 0.02922793869 0.002853418602)
(4.166394686 0.04939330449 0.004160818488)
(4.292377263 0.07770786224 0.005547477928)
(4.483115717 0.1140214439 0.006732603831)
(4.752862203 0.1563154803 0.007375443768)
(5.109804136 0.2005633798 0.007174171218)
(5.552464707 0.2412389178 0.005978427705)
(6.067760084 0.2724416862 0.003867426278)
(6.631668781 0.2893265429 0.001153736795)
(7.212645927 0.2893507902 -0.001696059726)
(7.776951642 0.2728930015 -0.004194724608)
(8.29439241 0.2430407254 -0.005968832052)
(8.7428928 0.2046687712 -0.006844282615)
(9.110824347 0.1631765011 -0.006858583224)
(9.396847601 0.1233180738 -0.006208519679)
(9.607796417 0.08844466213 -0.005164755099)
(9.75556764 0.06026833683 -0.003989335921)
(9.853996073 0.03906263942 -0.002880847181)
(9.916403499 0.02410776757 -0.001954544293)
(9.954107815 0.01418177621 -0.001250551947)
(9.975836171 0.007960225634 -0.000756804553)
(9.987791844 0.004267490238 -0.0004342724413)
(9.994078967 0.002187219666 -0.000236782583)
(9.997241753 0.001072740908 -0.0001228974244)
(9.998765198 0.0005039411131 -6.082059334e-05)
)
;

boundaryField
{
    left
    {
        type            dirichlet;
        value           uniform (4 0 0);
    }
    right
    {
        type            dirichlet;
        value           uniform (4 0 0);
    }
    sides
    {
        type            empty;
    }
}


// ************************************************************************* //
