/*--------------------------------*- C++ -*----------------------------------*\
| =========                 |                                                 |
| \\      /  F ield         | foam-extend: Open Source CFD                    |
|  \\    /   O peration     | Version:     4.1                                |
|   \\  /    A nd           | Web:         http://www.foam-extend.org         |
|    \\/     M anipulation  |                                                 |
\*---------------------------------------------------------------------------*/
FoamFile
{
    version     2.0;
    format      ascii;
    class       cellScalarField;
    location    "16.5";
    object      T;
}
// * * * * * * * * * * * * * * * * * * * * * * * * * * * * * * * * * * * * * //

dimensions      [0 0 0 0 1 0 0];

internalField   nonuniform 
100
(
(4 -5.703630593e-17 1.624202108e-17)
(4 -2.042622412e-16 -1.88116721e-16)
(4 -1.577837104e-17 2.041236657e-16)
(4 4.753152267e-17 3.846206467e-17)
(4 -2.181661494e-16 -2.26538063e-17)
(4 -3.860361197e-16 5.265434352e-18)
(4 3.856892263e-16 1.309111378e-17)
(4 -5.301448792e-16 5.872339758e-18)
(4 9.813628127e-16 -5.07571125e-17)
(4 -1.564515695e-15 4.192803201e-17)
(4 4.092183719e-16 -2.142371679e-16)
(4 1.660708674e-15 2.922071866e-17)
(4 8.932974121e-16 -1.777276813e-16)
(4 6.456167506e-16 6.647965676e-16)
(4 1.999777729e-14 1.409956842e-14)
(4 3.786099322e-13 2.333500261e-13)
(4 6.667909829e-12 4.285849106e-12)
(4 1.097485135e-10 6.408837012e-11)
(4.000000001 1.52134926e-09 8.613536796e-10)
(4.000000018 1.973026447e-08 1.072320586e-08)
(4.000000212 2.261600676e-07 1.137938922e-07)
(4.000002193 2.241224141e-06 1.055843946e-06)
(4.000019943 1.957397416e-05 8.517132152e-06)
(4.000157002 0.0001451619944 5.575868642e-05)
(4.001024888 0.0008651023084 0.0002818422053)
(4.005388232 0.004038749703 0.001086383798)
(4.022695644 0.01478112249 0.003212337384)
(4.077299538 0.04293221343 0.00735632498)
(4.216154378 0.1004958844 0.0131177229)
(4.50479908 0.1924654961 0.01811720853)
(5.001851752 0.3057544878 0.01879286459)
(5.719496262 0.4078879347 0.01303184177)
(6.59766422 0.4619604956 0.002368072012)
(7.517316309 0.4485558924 -0.008691373065)
(8.348814079 0.3767190198 -0.01576748869)
(9.00310288 0.2758748268 -0.01725592809)
(9.45449188 0.1774704735 -0.01449210289)
(9.729393198 0.1009841911 -0.01003253494)
(9.878131747 0.0511553271 -0.005921435341)
(9.950060187 0.02320948639 -0.003040393398)
(9.981326137 0.009485376038 -0.001377112958)
(9.993608157 0.003510752709 -0.0005561025043)
(9.997990532 0.001182826727 -0.0002019440333)
(9.999417766 0.0003645190984 -6.643217601e-05)
(9.999843979 0.0001032266036 -1.992413514e-05)
(9.9999612 2.697894684e-05 -5.479210195e-06)
(9.999991015 6.53446846e-06 -1.388809152e-06)
(9.999998056 1.47245236e-06 -3.259931767e-07)
(9.999999606 3.098269469e-07 -7.117158639e-08)
(9.999999925 6.108805336e-08 -1.451057649e-08)
(9.999999987 1.132346214e-08 -2.773084958e-09)
(9.999999998 1.979398007e-09 -4.984808743e-10)
(10 3.272587732e-10 -8.455617337e-11)
(10 5.131106024e-11 -1.357505906e-11)
(10 7.652208177e-12 -2.069296574e-12)
(10 1.086790635e-12 -3.004801619e-13)
(10 1.489019635e-13 -4.173439309e-14)
(10 1.40579518e-14 -4.072654553e-15)
(10 1.059975882e-16 -2.327069484e-16)
(10 -3.190185457e-16 -2.030718318e-17)
(10 -3.148419552e-16 4.521074334e-16)
(10 1.191426077e-16 1.777739069e-16)
(10 -2.382528871e-16 2.73212095e-16)
(10 -4.543743206e-16 -2.254405216e-16)
(10 -3.393310538e-17 -4.690331378e-16)
(10 1.848192087e-16 -5.731852869e-17)
(10 4.844574666e-16 2.038279787e-16)
(10 -8.343792656e-17 1.37102344e-17)
(10 5.872481469e-16 5.159110221e-17)
(10 -2.997877004e-16 -7.914061711e-17)
(10 -7.799547946e-17 -8.94358186e-18)
(10 -1.628056807e-16 -4.638726279e-16)
(10 1.32752936e-16 -4.198461081e-16)
(10 -1.06955453e-16 -3.113085398e-17)
(10 -1.175195577e-16 4.253544416e-16)
(10 -2.009356402e-16 7.289303752e-16)
(10 -3.773164227e-16 2.615818588e-16)
(10 -4.269947052e-16 -1.998154533e-16)
(10 2.982379569e-16 1.122223079e-16)
(10 -2.71674304e-16 1.930761277e-17)
(10 3.504049274e-16 -5.7008107e-16)
(10 3.497952986e-16 -3.19099559e-16)
(10 2.98509384e-16 1.652692542e-16)
(10 4.72128517e-17 -4.165112224e-16)
(10 1.554908719e-16 -7.763572354e-17)
(10 -1.392992517e-16 -3.024275736e-16)
(10 2.415339627e-16 1.442497238e-16)
(10 1.601819088e-16 2.146588314e-16)
(10 -2.906681229e-16 3.567063814e-16)
(10 -1.012916936e-16 -1.001990226e-16)
(10 1.499137044e-16 -1.924047458e-16)
(10 -4.659297414e-17 2.236002248e-17)
(10 -3.25943944e-16 -5.202051965e-16)
(10 2.510796346e-16 -3.43790276e-16)
(10 -2.861457851e-17 6.793236279e-17)
(10 1.1275218e-16 -1.503963009e-16)
(10 3.92180461e-16 -3.710757671e-16)
(10 -1.92947935e-16 -1.057659283e-16)
(10 -2.040068528e-16 -5.546130634e-17)
(10 -7.969740922e-16 3.611883363e-15)
)
;

boundaryField
{
    left
    {
        type            dirichlet;
        value           uniform (4 0 0);
    }
    right
    {
        type            dirichlet;
        value           uniform (4 0 0);
    }
    sides
    {
        type            empty;
    }
}


// ************************************************************************* //
