-0.9475 -0.999996756556
-0.85 -0.999987238213
-0.75 -0.999945923506
-0.65 -0.999776129753
-0.55 -0.999080763249
-0.45 -0.996237764925
-0.35 -0.984684831307
-0.25 -0.938872646052
-0.15 -0.773377422611
-0.05 -0.32754544489
0.05 0.32754544489
0.15 0.773377422611
0.25 0.938872646052
0.35 0.984684831307
0.45 0.996237764925
0.55 0.999080763249
0.65 0.999776129753
0.75 0.999945923506
0.85 0.999987238213
