/*--------------------------------*- C++ -*----------------------------------*\
| =========                 |                                                 |
| \\      /  F ield         | foam-extend: Open Source CFD                    |
|  \\    /   O peration     | Version:     4.1                                |
|   \\  /    A nd           | Web:         http://www.foam-extend.org         |
|    \\/     M anipulation  |                                                 |
\*---------------------------------------------------------------------------*/
FoamFile
{
    version     2.0;
    format      ascii;
    class       cellScalarField;
    location    "11";
    object      T;
}
// * * * * * * * * * * * * * * * * * * * * * * * * * * * * * * * * * * * * * //

dimensions      [0 0 0 0 1 0 0];

internalField   nonuniform 
100
(
(4 -5.703630593e-17 1.624202108e-17)
(4 -7.221450967e-17 2.974545592e-18)
(4 -7.274189918e-17 3.246721147e-17)
(4 -5.896728795e-17 1.731328034e-16)
(4 1.212712606e-16 -1.419247467e-16)
(4 1.580573488e-16 -6.239594972e-16)
(4 -2.891583122e-15 3.221889015e-14)
(4 1.159714597e-12 3.624326049e-13)
(4 7.359710146e-12 9.579687286e-12)
(4 4.658390034e-10 3.098689228e-10)
(4.000000006 6.928285239e-09 3.957842083e-09)
(4.000000102 1.215446161e-07 8.204548439e-08)
(4.0000017 1.958352719e-06 1.05992812e-06)
(4.000020955 2.222705852e-05 1.152184625e-05)
(4.000227198 0.0002390225739 0.0001180814274)
(4.002130266 0.00209552971 0.0008427382799)
(4.01479622 0.01256411366 0.003824300476)
(4.072758439 0.05087841187 0.01128372042)
(4.259237374 0.1444132374 0.0222210289)
(4.695931121 0.2988576175 0.02907206029)
(5.464378269 0.4661764497 0.0229466123)
(6.508111939 0.5632756151 0.004370416882)
(7.627252202 0.5393336197 -0.01535331102)
(8.592991781 0.4172578329 -0.02520796454)
(9.27505992 0.2653131322 -0.02355457045)
(9.67529634 0.140777933 -0.01606249927)
(9.873110187 0.06320324583 -0.008645109891)
(9.956497731 0.02431568309 -0.003821708185)
(9.986829928 0.008110842872 -0.001423792459)
(9.996454172 0.002371311642 -0.0004556129477)
(9.999144886 0.0006137809901 -0.0001271494171)
(9.999813967 0.0001419603531 -3.134327603e-05)
(9.999963238 2.959101434e-05 -6.900265458e-06)
(9.999993358 5.602748987e-06 -1.369838446e-06)
(9.999998896 9.705452191e-07 -2.473242708e-07)
(9.99999983 1.548322009e-07 -4.092289144e-08)
(9.999999976 2.288477202e-08 -6.24783426e-09)
(9.999999997 3.151018982e-09 -8.855528392e-10)
(10 4.062017909e-10 -1.171704379e-10)
(10 4.925289623e-11 -1.454376746e-11)
(10 5.639452077e-12 -1.701490755e-12)
(10 6.112812468e-13 -1.887936297e-13)
(10 6.126290075e-14 -1.894761251e-14)
(10 3.851243265e-15 -1.862685586e-15)
(10 -1.173855911e-16 5.635584086e-16)
(10 -3.702014069e-16 2.44050545e-16)
(10 -3.956790079e-16 1.960075503e-16)
(10 -1.315694106e-16 -4.690400662e-16)
(10 1.767601789e-16 -3.341747355e-16)
(10 1.782604819e-16 -4.304248694e-16)
(10 2.052122821e-16 -5.562929508e-16)
(10 -3.516983068e-17 4.877525605e-17)
(10 1.946057222e-16 1.477687636e-16)
(10 -3.664862212e-16 4.544161203e-16)
(10 4.922818641e-16 8.301284078e-17)
(10 -3.40702675e-16 -2.14553524e-16)
(10 3.274780202e-16 3.666195168e-16)
(10 -5.003543819e-16 3.809775194e-16)
(10 3.466140153e-16 1.218251169e-16)
(10 -1.563447304e-17 4.777523924e-16)
(10 -5.684680254e-17 5.201041014e-16)
(10 -7.436537635e-17 4.888332137e-17)
(10 2.627564116e-17 -3.049440624e-16)
(10 -2.377788659e-17 -3.482055321e-16)
(10 -5.264909865e-17 1.117379206e-16)
(10 9.614437945e-17 5.742337389e-16)
(10 -3.569926503e-16 5.786220268e-16)
(10 -1.924635278e-16 -3.455465823e-17)
(10 1.085012658e-16 -4.348073488e-16)
(10 -1.05780206e-16 5.038888134e-17)
(10 -4.592903878e-17 -7.138325279e-16)
(10 6.776853741e-16 -1.342398034e-16)
(10 1.369686086e-16 -3.793364522e-16)
(10 4.241045811e-16 2.957435042e-17)
(10 1.769060489e-16 -1.962816704e-18)
(10 4.088609869e-17 -3.130864562e-17)
(10 4.767140142e-16 -5.129499304e-18)
(10 -4.156142716e-16 2.754437524e-16)
(10 -1.139922283e-16 4.273070097e-17)
(10 4.361973894e-16 2.703841802e-16)
(10 5.438148535e-17 -4.079878245e-16)
(10 2.778239976e-17 -7.032152605e-16)
(10 2.665830658e-16 3.469155434e-16)
(10 2.098141456e-16 6.352217696e-16)
(10 1.244748298e-16 5.602571696e-16)
(10 -2.910521427e-16 -4.103200011e-16)
(10 2.834331392e-16 9.866755387e-17)
(10 -5.40940853e-16 2.711401527e-16)
(10 1.638810497e-16 3.382575756e-16)
(10 1.15171676e-16 -3.50958372e-16)
(10 -2.127281588e-16 2.433090611e-16)
(10 -2.980814441e-17 9.8621917e-17)
(10 -3.427209835e-16 4.588437866e-16)
(10 -5.619699835e-17 -1.244791548e-16)
(10 1.058443473e-17 -3.079709449e-16)
(10 -1.095728617e-16 1.724493175e-16)
(10 -3.152749722e-16 -3.063104395e-16)
(10 -3.405254462e-16 -2.392138052e-16)
(10 2.89519004e-16 4.494675869e-16)
(10 -7.20964378e-16 3.459944852e-15)
)
;

boundaryField
{
    left
    {
        type            dirichlet;
        value           uniform (4 0 0);
    }
    right
    {
        type            dirichlet;
        value           uniform (4 0 0);
    }
    sides
    {
        type            empty;
    }
}


// ************************************************************************* //
