/*--------------------------------*- C++ -*----------------------------------*\
| =========                 |                                                 |
| \\      /  F ield         | foam-extend: Open Source CFD                    |
|  \\    /   O peration     | Version:     4.1                                |
|   \\  /    A nd           | Web:         http://www.foam-extend.org         |
|    \\/     M anipulation  |                                                 |
\*---------------------------------------------------------------------------*/
FoamFile
{
    version     2.0;
    format      ascii;
    class       cellScalarField;
    location    "48.7";
    object      T;
}
// * * * * * * * * * * * * * * * * * * * * * * * * * * * * * * * * * * * * * //

dimensions      [0 0 0 0 1 0 0];

internalField   nonuniform 
100
(
(4 -5.703630593e-17 1.624202108e-17)
(4 -3.816152391e-17 3.661789627e-17)
(4 3.211684458e-17 -3.873065321e-17)
(4 -4.352691408e-17 -3.66925763e-19)
(4 5.943702528e-17 -1.670858535e-16)
(4 -4.608948368e-16 -5.305926547e-17)
(4 3.97890458e-16 5.475319016e-17)
(4 -3.153644027e-16 1.199641915e-16)
(4 7.611975116e-16 5.967566939e-17)
(4 -1.41353614e-15 -2.177003018e-16)
(4 4.915306622e-16 -1.480760394e-16)
(4 -2.505038251e-16 2.227779007e-16)
(4 9.550810815e-16 -1.976879285e-17)
(4 -1.285023021e-16 -1.112783503e-16)
(4 4.511445794e-17 -4.185689178e-17)
(4 1.373779033e-16 -6.275029193e-17)
(4 6.81401421e-17 3.375813119e-16)
(4 -4.687921949e-17 -3.74075274e-17)
(4 3.323869055e-17 6.438734523e-17)
(4 -1.245361953e-16 2.357672449e-16)
(4 8.096692246e-17 -1.542253359e-16)
(4 -6.273055056e-17 2.949280685e-16)
(4 2.48284792e-17 6.020014771e-17)
(4 1.732882659e-16 6.439211877e-17)
(4 -2.103390848e-16 -1.312577825e-16)
(4 5.206437663e-17 6.196126078e-17)
(4 -1.723390172e-16 -6.839517908e-17)
(4 1.394832346e-16 -1.180214949e-16)
(4 -4.308062198e-16 7.000892398e-17)
(4 4.58786363e-16 -8.615413856e-17)
(4 2.45230549e-17 2.569199056e-16)
(4 -2.155535649e-16 -1.751835893e-17)
(4 3.736698816e-17 -2.327157141e-16)
(4 -4.89610578e-16 2.272004322e-17)
(4 3.485372346e-16 -1.71954355e-16)
(4 -2.761855432e-16 -4.517500334e-17)
(4 8.755268964e-16 -2.003336786e-17)
(4 -9.116367691e-16 5.164188847e-17)
(4 2.964535233e-16 1.447333898e-16)
(4 3.489121551e-17 -9.554291866e-17)
(4 -5.047847698e-17 -1.556471128e-16)
(4 -2.695865345e-17 -1.288298124e-16)
(4 1.235690003e-16 -1.296967609e-16)
(4 1.48632135e-17 1.226488971e-16)
(4 -4.603961896e-16 -1.840637232e-16)
(4 9.491734324e-16 -1.610215966e-16)
(4 -7.763994295e-16 1.263975836e-16)
(4 7.439173126e-16 -4.236863719e-17)
(4 -9.931757858e-16 -7.784432073e-17)
(4 6.993635751e-16 -9.133911123e-17)
(4 -3.81191438e-17 2.524565429e-16)
(4 -1.11337672e-16 9.810954542e-17)
(4 4.611046812e-17 -4.839415969e-17)
(4 9.744006527e-17 2.898192474e-16)
(4 -2.889852748e-16 1.10547512e-16)
(4 1.975157504e-16 -1.654955214e-16)
(4 6.940935143e-17 3.40464689e-17)
(4 -2.6102579e-17 4.012605678e-17)
(4 6.312811133e-18 -1.100566934e-16)
(4 3.64825862e-17 -1.494210491e-16)
(4 -2.459816981e-16 -9.779084198e-17)
(4 -2.268951143e-17 -7.700262451e-17)
(4 -3.195282885e-17 -1.041542366e-16)
(4 -6.762376082e-18 -9.747916383e-17)
(4 4.792704938e-16 5.798397302e-16)
(4 3.317969858e-15 1.56018234e-15)
(4 3.148674095e-14 1.392137356e-14)
(4 2.334818194e-13 9.488126472e-14)
(4 1.616021831e-12 6.280028714e-13)
(4 1.052929256e-11 3.925532787e-12)
(4 6.422015215e-11 2.289977912e-11)
(4 3.659820144e-10 1.244140542e-10)
(4.000000002 1.943893128e-09 6.277905859e-10)
(4.000000013 9.601716795e-09 2.935707017e-09)
(4.00000006 4.402745091e-08 1.270051838e-08)
(4.000000267 1.871823202e-07 5.077507426e-08)
(4.000001102 7.373620349e-07 1.874765806e-07)
(4.00000423 2.690941027e-06 6.3924571e-07)
(4.000015094 9.100466457e-06 2.013448486e-06)
(4.000050092 2.853962309e-05 5.861659253e-06)
(4.000154789 8.307521738e-05 1.578519898e-05)
(4.000445902 0.000224718454 3.935684089e-05)
(4.001199199 0.0005656127368 9.093644122e-05)
(4.003015662 0.001326548924 0.0001948925932)
(4.007103096 0.002903254504 0.0003877398952)
(4.015698406 0.005938121738 0.0007165504693)
(4.032614013 0.01136737399 0.001230485843)
(4.063813972 0.02039654821 0.001963513066)
(4.11782437 0.03435308519 0.002910010878)
(4.205698663 0.05438759612 0.004000368206)
(4.340252689 0.0810503648 0.005088309999)
(4.534410509 0.1138437916 0.005961993386)
(4.798768386 0.1509117777 0.00638446583)
(5.138821924 0.1890332973 0.006156913705)
(5.552575042 0.2240159866 0.00518542598)
(6.02931177 0.2514502319 0.003525823953)
(6.550083483 0.2676378306 0.001386229336)
(7.089991795 0.2704204534 -0.0009175566417)
(7.621798655 0.2596492627 -0.003040016273)
(8.119985594 0.2371563184 -0.00469032825)
)
;

boundaryField
{
    left
    {
        type            dirichlet;
        value           uniform (4 0 0);
    }
    right
    {
        type            dirichlet;
        value           uniform (4 0 0);
    }
    sides
    {
        type            empty;
    }
}


// ************************************************************************* //
