/*--------------------------------*- C++ -*----------------------------------*\
| =========                 |                                                 |
| \\      /  F ield         | foam-extend: Open Source CFD                    |
|  \\    /   O peration     | Version:     4.1                                |
|   \\  /    A nd           | Web:         http://www.foam-extend.org         |
|    \\/     M anipulation  |                                                 |
\*---------------------------------------------------------------------------*/
FoamFile
{
    version     2.0;
    format      ascii;
    class       cellScalarField;
    location    "1";
    object      T;
}
// * * * * * * * * * * * * * * * * * * * * * * * * * * * * * * * * * * * * * //

dimensions      [0 0 0 0 1 0 0];

internalField   nonuniform 10((4.862851029 -0.1889714058 0.01256403803) (4.437784631 -0.1765086972 -0.0001013294778) (4.013934186 -0.1766092095 8.172263614e-07) (3.590073935 -0.1766083989 -6.590961257e-09) (3.166213763 -0.1766084054 5.283487671e-11) (2.74235359 -0.1766084053 3.943868887e-11) (2.318493417 -0.1766084102 -4.943219471e-09) (1.894633303 -0.1766078022 6.12919771e-07) (1.470765834 -0.1766831864 -7.599710838e-05) (1.04781033 -0.167336155 0.009423028519));

boundaryField
{
    left
    {
        type            dirichlet;
        value           uniform (5 0 0);
    }
    right
    {
        type            dirichlet;
        value           uniform (1 0 0);
    }
    sides
    {
        type            empty;
    }
}


// ************************************************************************* //
