/*--------------------------------*- C++ -*----------------------------------*\
| =========                 |                                                 |
| \\      /  F ield         | foam-extend: Open Source CFD                    |
|  \\    /   O peration     | Version:     4.1                                |
|   \\  /    A nd           | Web:         http://www.foam-extend.org         |
|    \\/     M anipulation  |                                                 |
\*---------------------------------------------------------------------------*/
FoamFile
{
    version     2.0;
    format      ascii;
    class       cellScalarField;
    location    "31.6";
    object      T;
}
// * * * * * * * * * * * * * * * * * * * * * * * * * * * * * * * * * * * * * //

dimensions      [0 0 0 0 1 0 0];

internalField   nonuniform 
100
(
(4 -5.703630593e-17 1.624202108e-17)
(4 -2.840197458e-17 3.30455467e-16)
(4 -3.916613303e-17 8.451497332e-17)
(4 -2.872339213e-17 -1.156627574e-16)
(4 6.729315221e-17 1.256518579e-17)
(4 -5.186592455e-16 -1.629996731e-17)
(4 5.906935092e-16 1.491348498e-16)
(4 -2.640590719e-16 1.138705715e-17)
(4 6.852237753e-16 2.032582774e-16)
(4 -1.512892547e-15 -2.005821675e-16)
(4 4.336457112e-16 -8.903686355e-17)
(4 -2.041673039e-16 -1.754397328e-16)
(4 1.00302133e-15 1.548225796e-16)
(4 -4.520608181e-16 2.656422825e-17)
(4 5.354154273e-16 -5.421244963e-17)
(4 -7.70097893e-16 4.287959773e-17)
(4 6.168903266e-16 -1.246378327e-16)
(4 -1.010401466e-16 2.47345924e-16)
(4 -2.006555759e-17 2.07385689e-16)
(4 7.309773528e-17 1.896369542e-16)
(4 -2.105074035e-16 1.396684593e-16)
(4 1.552935956e-16 2.378181022e-17)
(4 -2.388435541e-16 -3.106168193e-17)
(4 3.051579262e-17 5.921469681e-17)
(4 -2.534447213e-16 2.097034806e-16)
(4 -6.439576285e-18 -4.907659269e-17)
(4 -2.370248217e-17 1.830374065e-17)
(4 -9.930592744e-17 2.616200876e-17)
(4 -4.212067545e-16 2.149173095e-16)
(4 2.138644005e-16 1.036767524e-17)
(4 6.269978771e-17 -2.220613463e-16)
(4 6.142536879e-17 5.054345938e-17)
(4 -2.432676191e-16 -1.794741919e-16)
(4 -2.680442985e-16 -6.591024029e-17)
(4 9.649055507e-16 1.240351678e-17)
(4 -7.14870612e-16 6.886046333e-17)
(4 1.673526929e-16 2.529854676e-16)
(4 3.362490227e-15 1.926707967e-15)
(4 4.469440549e-14 2.371223748e-14)
(4 4.893962519e-13 2.414322963e-13)
(4 4.804333751e-12 2.283498221e-12)
(4 4.391371062e-11 2.002522254e-11)
(4 3.711728497e-10 1.615771968e-10)
(4.000000003 2.884484536e-09 1.192127522e-09)
(4.000000023 2.048195669e-08 7.983413211e-09)
(4.000000152 1.319206043e-07 4.810551992e-08)
(4.000000922 7.646338295e-07 2.585464342e-07)
(4.000005043 3.960099209e-06 1.230687851e-06)
(4.000024718 1.82342339e-05 5.165373936e-06)
(4.000108239 7.44595431e-05 1.908156534e-05)
(4.000423177 0.0002696007193 6.205396014e-05)
(4.001479044 0.0008668620246 0.0001779103035)
(4.00463317 0.002481731094 0.0004506121881)
(4.013053038 0.00634693477 0.001010416016)
(4.03320601 0.01455267058 0.002009357289)
(4.076607781 0.03002598811 0.003547207399)
(4.161008494 0.0559524371 0.005556557861)
(4.309725245 0.09450418001 0.007702642507)
(4.547957563 0.1451683719 0.009385271215)
(4.896019778 0.2034647606 0.009902653328)
(5.361230515 0.2609980803 0.008742294994)
(5.931701684 0.3073128508 0.005859226663)
(6.575276809 0.3330561166 0.001773788571)
(7.24497129 0.3331069547 -0.002589840578)
(7.889349361 0.3082188193 -0.006250838653)
(8.464014387 0.2644669739 -0.008524181744)
(8.940089305 0.2109118192 -0.009209267297)
(9.307249906 0.1566696092 -0.008555833014)
(9.571400555 0.1086227547 -0.007071438555)
(9.749032462 0.0704321505 -0.005293786692)
(9.860896384 0.04279214737 -0.00362949748)
(9.926989288 0.02440612313 -0.0022963568)
(9.963690765 0.01309018196 -0.001348280304)
(9.982878273 0.006613773622 -0.0007378701144)
(9.992337997 0.003153044297 -0.0003777527265)
(9.99674313 0.001420644928 -0.0001814669243)
(9.998683728 0.0006058874455 -8.201916702e-05)
(9.999493686 0.0002449656713 -3.496243809e-05)
(9.999814444 9.402903937e-05 -1.408642032e-05)
(9.99993514 3.431471908e-05 -5.37501874e-06)
(9.999978354 1.192232729e-05 -1.946012559e-06)
(9.999993095 3.94900033e-06 -6.696564768e-07)
(9.999997893 1.248606883e-06 -2.193866081e-07)
(9.999999384 3.77335435e-07 -6.853191784e-08)
(9.999999827 1.091259586e-07 -2.04428e-08)
(9.999999954 3.023760154e-08 -5.831270602e-09)
(9.999999988 8.036938002e-09 -1.592740124e-09)
(9.999999997 2.051394977e-09 -4.171055204e-10)
(9.999999999 5.033833516e-10 -1.048581676e-10)
(10 1.188787392e-10 -2.533535726e-11)
(10 2.704710639e-11 -5.89047345e-12)
(10 5.931888634e-12 -1.319094967e-12)
(10 1.254791708e-12 -2.837474943e-13)
(10 2.569725432e-13 -6.028962439e-14)
(10 4.73032419e-14 -1.029628574e-14)
(10 1.53117061e-14 -2.501310619e-15)
(10 3.0388536e-15 -1.496698954e-15)
(10 -3.185307772e-16 -3.277758884e-16)
(10 1.745165023e-16 -5.533035256e-16)
(10 -9.850267288e-16 2.992587333e-15)
)
;

boundaryField
{
    left
    {
        type            dirichlet;
        value           uniform (4 0 0);
    }
    right
    {
        type            dirichlet;
        value           uniform (4 0 0);
    }
    sides
    {
        type            empty;
    }
}


// ************************************************************************* //
