/*--------------------------------*- C++ -*----------------------------------*\
| =========                 |                                                 |
| \\      /  F ield         | foam-extend: Open Source CFD                    |
|  \\    /   O peration     | Version:     4.1                                |
|   \\  /    A nd           | Web:         http://www.foam-extend.org         |
|    \\/     M anipulation  |                                                 |
\*---------------------------------------------------------------------------*/
FoamFile
{
    version     2.0;
    format      ascii;
    class       cellScalarField;
    location    "48.4";
    object      T;
}
// * * * * * * * * * * * * * * * * * * * * * * * * * * * * * * * * * * * * * //

dimensions      [0 0 0 0 1 0 0];

internalField   nonuniform 
100
(
(4 -5.703630593e-17 1.624202108e-17)
(4 -6.283660479e-18 1.781450722e-17)
(4 3.32636614e-18 -1.575163842e-17)
(4 -3.148590676e-16 -9.122648432e-17)
(4 3.152250252e-17 3.174968085e-18)
(4 -5.123315806e-16 -2.447502133e-17)
(4 3.358405364e-16 1.444382859e-16)
(4 -4.564369271e-16 -1.004816295e-16)
(4 9.58854828e-16 -1.267725593e-16)
(4 -1.205069873e-15 1.97596291e-16)
(4 1.447522484e-16 -1.02416615e-16)
(4 1.696939954e-16 6.479204268e-17)
(4 7.22882176e-16 -4.043559021e-17)
(4 -1.447604962e-17 -4.024459492e-17)
(4 2.937825034e-17 -1.433071987e-16)
(4 1.906310242e-16 -2.588990321e-16)
(4 2.26180116e-16 -1.593826713e-17)
(4 5.375517993e-17 -1.757828421e-16)
(4 3.479100874e-17 -9.906291136e-19)
(4 -2.244454441e-16 -1.335213849e-16)
(4 4.677969161e-17 -1.51959884e-16)
(4 -1.50328385e-16 3.725710101e-16)
(4 1.535684966e-16 -1.070083796e-16)
(4 2.101463378e-17 7.037843079e-17)
(4 -6.883030194e-18 1.1929953e-16)
(4 -9.127744161e-17 -1.129956477e-16)
(4 1.709070658e-16 1.679527716e-16)
(4 -1.276875986e-16 2.9728328e-16)
(4 -5.601364057e-16 4.536406018e-17)
(4 5.742313266e-16 -8.324502883e-17)
(4 2.148779899e-17 8.585232429e-17)
(4 -9.964730185e-17 2.326187818e-16)
(4 -1.415936465e-16 5.851326751e-17)
(4 -3.852540705e-16 1.951201015e-16)
(4 6.992522931e-17 -7.490109767e-17)
(4 -6.361204627e-17 -2.800996467e-16)
(4 1.028782041e-15 -7.38459796e-17)
(4 -1.039657544e-15 1.460946995e-16)
(4 5.393916146e-16 8.580902694e-18)
(4 -1.316827234e-16 -4.888039942e-17)
(4 1.613592953e-16 -1.403938368e-16)
(4 -1.315912243e-16 -1.722597371e-16)
(4 -1.783636212e-16 -6.186871007e-17)
(4 1.620792162e-16 2.540389759e-17)
(4 -4.559680682e-16 -6.38561352e-17)
(4 9.751870691e-16 -1.634734094e-17)
(4 -8.229271175e-16 8.506041167e-17)
(4 8.367813458e-16 -8.891955647e-17)
(4 -8.483733368e-16 -1.477789796e-16)
(4 4.592234295e-16 -1.34026013e-16)
(4 1.304714326e-16 8.531129511e-17)
(4 -7.224052115e-17 1.920757922e-16)
(4 5.387647533e-17 -1.371542372e-16)
(4 7.88500199e-17 5.346256734e-17)
(4 -1.166242173e-16 1.667196541e-16)
(4 1.877245964e-16 -1.447941999e-16)
(4 1.220812467e-16 -6.301037582e-17)
(4 2.659979266e-17 -1.259945882e-16)
(4 1.372567985e-16 2.000429853e-16)
(4 8.580724568e-17 -5.629701258e-17)
(4 -1.073234985e-16 -2.457766018e-17)
(4 3.098497642e-17 -1.956423578e-16)
(4 2.902994455e-17 1.841568588e-16)
(4 -4.512760387e-17 -5.335769168e-17)
(4 2.304254487e-15 1.640360763e-16)
(4 9.787905339e-15 5.329150444e-15)
(4 8.791587845e-14 3.605020355e-14)
(4 6.268774083e-13 2.48813074e-13)
(4 4.229130327e-12 1.615942714e-12)
(4 2.679708655e-11 9.804501969e-12)
(4 1.587607909e-10 5.546843876e-11)
(4.000000001 8.775007912e-10 2.917336547e-10)
(4.000000006 4.513616598e-09 1.422891014e-09)
(4.000000029 2.156185603e-08 6.422664384e-09)
(4.000000133 9.551262933e-08 2.679077233e-08)
(4.000000571 3.919435736e-07 1.031807288e-07)
(4.000002279 1.489322428e-06 3.667787952e-07)
(4.000008448 5.240676895e-06 1.203502235e-06)
(4.000029111 1.708572165e-05 3.646903757e-06)
(4.000093306 5.165185158e-05 1.021276615e-05)
(4.000278497 0.0001449486959 2.645329561e-05)
(4.000775139 0.0003780649455 6.343681512e-05)
(4.002014906 0.0009177887732 0.0001409729103)
(4.004899674 0.002076710977 0.0002905624769)
(4.011165554 0.004386474598 0.0005558642458)
(4.023888531 0.008661946467 0.0009875158049)
(4.048074654 0.01601497029 0.001629478772)
(4.091181252 0.02776440983 0.00249671721)
(4.163315098 0.04519909894 0.003549004521)
(4.276804689 0.06919287446 0.004671199089)
(4.444910303 0.09974172153 0.005672999563)
(4.679650855 0.1355662268 0.006317629706)
(4.989055322 0.1739570519 0.006378430231)
(5.374474023 0.2110021157 0.005708610186)
(5.828755004 0.2422179166 0.004299400865)
(6.335982561 0.2634532406 0.002302053314)
(6.873079073 0.2718098644 1.20688529e-06)
(7.413014927 0.2662943964 -0.002253787685)
(7.928868769 0.2479988883 -0.004136129477)
(8.397731917 0.2197707392 -0.005417433994)
)
;

boundaryField
{
    left
    {
        type            dirichlet;
        value           uniform (4 0 0);
    }
    right
    {
        type            dirichlet;
        value           uniform (4 0 0);
    }
    sides
    {
        type            empty;
    }
}


// ************************************************************************* //
