/*--------------------------------*- C++ -*----------------------------------*\
| =========                 |                                                 |
| \\      /  F ield         | foam-extend: Open Source CFD                    |
|  \\    /   O peration     | Version:     4.1                                |
|   \\  /    A nd           | Web:         http://www.foam-extend.org         |
|    \\/     M anipulation  |                                                 |
\*---------------------------------------------------------------------------*/
FoamFile
{
    version     2.0;
    format      ascii;
    class       cellScalarField;
    location    "5.2";
    object      T;
}
// * * * * * * * * * * * * * * * * * * * * * * * * * * * * * * * * * * * * * //

dimensions      [0 0 0 0 1 0 0];

internalField   nonuniform 10((4 8.71652448e-13 -4.918930681e-11) (4 7.704777261e-10 3.344915667e-09) (4.000000055 4.422706202e-08 -4.073858669e-08) (4.000000192 4.656002524e-07 1.820667135e-06) (4.000038088 5.086838058e-05 1.833991675e-05) (4.000406493 0.0003629585004 0.0003098212696) (4.007865431 0.01033349914 0.006390738412) (4.099430053 0.1004006006 0.03283360396) (4.553504807 0.3808731964 0.06197968108) (5.676032028 0.7286976931 0.03812528715));

boundaryField
{
    left
    {
        type            dirichlet;
        value           uniform (4 0 0);
    }
    right
    {
        type            dirichlet;
        value           uniform (4 0 0);
    }
    sides
    {
        type            empty;
    }
}


// ************************************************************************* //
