/*--------------------------------*- C++ -*----------------------------------*\
| =========                 |                                                 |
| \\      /  F ield         | foam-extend: Open Source CFD                    |
|  \\    /   O peration     | Version:     4.1                                |
|   \\  /    A nd           | Web:         http://www.foam-extend.org         |
|    \\/     M anipulation  |                                                 |
\*---------------------------------------------------------------------------*/
FoamFile
{
    version     2.0;
    format      ascii;
    class       cellScalarField;
    location    "14.6";
    object      T;
}
// * * * * * * * * * * * * * * * * * * * * * * * * * * * * * * * * * * * * * //

dimensions      [0 0 0 0 1 0 0];

internalField   nonuniform 
100
(
(4 -5.703630593e-17 1.624202108e-17)
(4 -1.024700747e-16 2.001889243e-17)
(4 -8.119278472e-17 -1.627621828e-16)
(4 6.977250817e-18 -1.763560854e-17)
(4 7.72505344e-17 7.17434453e-18)
(4 -4.635024056e-16 7.810167352e-17)
(4 3.998567719e-16 6.88215555e-17)
(4 -4.130797324e-16 -3.033852796e-18)
(4 8.919386679e-16 -1.598764427e-16)
(4 -1.376115245e-15 -2.059709376e-16)
(4 6.102259479e-16 -9.523974128e-17)
(4 1.086849953e-14 1.057517758e-14)
(4 2.841959186e-13 1.589982255e-13)
(4 4.691074937e-12 3.312169463e-12)
(4 9.773267401e-11 6.071953273e-11)
(4.000000001 1.481349523e-09 8.581196878e-10)
(4.000000019 2.108216665e-08 1.221831588e-08)
(4.000000249 2.734691503e-07 1.443877107e-07)
(4.000002814 2.945978502e-06 1.446820666e-06)
(4.000027707 2.797701268e-05 1.286558354e-05)
(4.000237565 0.0002274550197 9.207835227e-05)
(4.001668118 0.001452255009 0.0004892386473)
(4.009167268 0.006999421387 0.0018974185)
(4.03914569 0.02552753726 0.005425670435)
(4.131661261 0.07172192948 0.01158374254)
(4.35608871 0.1584581504 0.01853101319)
(4.791846181 0.2806115964 0.02180819993)
(5.480257693 0.4050870377 0.01736641335)
(6.378068589 0.4837647982 0.005642666986)
(7.357140701 0.4841455493 -0.007977574843)
(8.260133564 0.4107332247 -0.0172506052)
(8.971748812 0.2984512538 -0.01947443978)
(9.455419839 0.1875012275 -0.01622147661)
(9.741394536 0.1027339309 -0.01089130001)
(9.889659814 0.04948734698 -0.006133615263)
(9.957567939 0.02111570635 -0.002965903808)
(9.985238329 0.00803723694 -0.001251413252)
(9.995335204 0.002747098796 -0.0004664306092)
(9.998655256 0.0008484324347 -0.0001551195415)
(9.999644831 0.0002381704089 -4.642371041e-05)
(9.999913685 6.110670677e-05 -1.259635837e-05)
(9.999980617 1.440392623e-05 -3.119379284e-06)
(9.999995962 3.134638367e-06 -7.092736504e-07)
(9.999999216 6.327045304e-07 -1.488851721e-07)
(9.999999858 1.189565006e-07 -2.899670928e-08)
(9.999999976 2.091683964e-08 -5.263760345e-09)
(9.999999996 3.452689887e-09 -8.943880394e-10)
(9.999999999 5.369082423e-10 -1.42802513e-10)
(10 7.891058158e-11 -2.150096863e-11)
(10 1.099334119e-11 -3.061901403e-12)
(10 1.460520756e-12 -4.154474984e-13)
(10 1.819636261e-13 -5.282134789e-14)
(10 2.113833773e-14 -7.179178669e-15)
(10 7.258104324e-17 -1.761886889e-16)
(10 -2.064375858e-16 -6.036260767e-17)
(10 -3.005085491e-16 -3.443015757e-16)
(10 -1.669000106e-16 -4.622311249e-17)
(10 4.254675691e-18 -1.515838844e-17)
(10 -2.790219892e-16 -1.127932946e-16)
(10 -3.119896998e-16 3.804778868e-16)
(10 1.146614906e-17 -2.803599379e-16)
(10 1.654835149e-16 -1.891394711e-16)
(10 -2.183903669e-16 3.608353617e-16)
(10 1.660028072e-16 1.67116246e-16)
(10 -3.310636031e-16 1.959873339e-16)
(10 -3.786279276e-16 -2.106611387e-16)
(10 7.713925363e-17 -1.183198728e-16)
(10 -3.336868326e-16 -6.990925519e-17)
(10 -7.136803958e-17 -1.83694454e-16)
(10 -3.957459027e-16 1.121594909e-16)
(10 3.02525429e-16 -4.209467653e-16)
(10 -3.195331273e-16 -9.245530137e-17)
(10 2.840792952e-17 -9.233828148e-17)
(10 6.540476853e-16 9.70434031e-17)
(10 1.467534366e-17 -1.481629274e-16)
(10 5.54200316e-16 -7.946223228e-16)
(10 2.602339923e-16 -4.176514201e-16)
(10 2.224985061e-16 -2.583193296e-16)
(10 -1.570588894e-16 -5.314594852e-16)
(10 -2.569228157e-16 3.146893789e-16)
(10 9.367442309e-17 2.834945207e-16)
(10 1.58730106e-16 6.638728552e-17)
(10 -1.67403282e-16 5.83984277e-16)
(10 -1.553177586e-16 -1.692278046e-16)
(10 1.312795565e-16 7.749604975e-17)
(10 -4.095585087e-17 2.926806073e-16)
(10 2.423766575e-16 -3.404167624e-16)
(10 2.420837254e-16 6.606116343e-17)
(10 -4.239094802e-16 9.185274692e-17)
(10 -1.524920273e-17 7.167454587e-17)
(10 -3.234761182e-16 7.368154035e-17)
(10 -1.566626198e-16 2.522040772e-16)
(10 5.122585301e-16 -5.630419984e-16)
(10 3.546879206e-16 4.472000829e-17)
(10 -9.28617541e-17 1.315027849e-16)
(10 -2.995215974e-16 1.443722835e-16)
(10 2.477434282e-16 -1.684889788e-16)
(10 2.710996085e-16 -1.59666478e-16)
(10 4.492113904e-16 -7.795330161e-17)
(10 -1.398441834e-15 3.44514503e-15)
)
;

boundaryField
{
    left
    {
        type            dirichlet;
        value           uniform (4 0 0);
    }
    right
    {
        type            dirichlet;
        value           uniform (4 0 0);
    }
    sides
    {
        type            empty;
    }
}


// ************************************************************************* //
