/*--------------------------------*- C++ -*----------------------------------*\
| =========                 |                                                 |
| \\      /  F ield         | foam-extend: Open Source CFD                    |
|  \\    /   O peration     | Version:     4.1                                |
|   \\  /    A nd           | Web:         http://www.foam-extend.org         |
|    \\/     M anipulation  |                                                 |
\*---------------------------------------------------------------------------*/
FoamFile
{
    version     2.0;
    format      ascii;
    class       cellScalarField;
    location    "5.9";
    object      T;
}
// * * * * * * * * * * * * * * * * * * * * * * * * * * * * * * * * * * * * * //

dimensions      [0 0 0 0 1 0 0];

internalField   nonuniform 10((4 1.140646315e-12 1.718336643e-12) (4 -5.062552315e-11 -8.382386584e-11) (4 2.482448216e-09 3.673220547e-09) (4.000000046 2.667051911e-08 -2.491295865e-08) (4.000000472 8.686877333e-07 1.50044458e-06) (4.000029302 3.698157154e-05 1.485525949e-05) (4.000333784 0.0003260440098 0.0002419984955) (4.005616387 0.007020975862 0.004127951135) (4.065945708 0.06609633906 0.02238687602) (4.378950534 0.2707392949 0.05023256469));

boundaryField
{
    left
    {
        type            dirichlet;
        value           uniform (4 0 0);
    }
    right
    {
        type            dirichlet;
        value           uniform (4 0 0);
    }
    sides
    {
        type            empty;
    }
}


// ************************************************************************* //
