/*--------------------------------*- C++ -*----------------------------------*\
| =========                 |                                                 |
| \\      /  F ield         | foam-extend: Open Source CFD                    |
|  \\    /   O peration     | Version:     4.1                                |
|   \\  /    A nd           | Web:         http://www.foam-extend.org         |
|    \\/     M anipulation  |                                                 |
\*---------------------------------------------------------------------------*/
FoamFile
{
    version     2.0;
    format      ascii;
    class       volScalarField;
    location    "38.2";
    object      Tvol;
}
// * * * * * * * * * * * * * * * * * * * * * * * * * * * * * * * * * * * * * //

dimensions      [0 0 0 0 1 0 0];

internalField   nonuniform List<scalar> 
100
(
4
4
4
4
4
4
4
4
4
4
4
4
4
4
4
4
4
4
4
4
4
4
4
4
4
4
4
4
4
4
4
4
4
4
4
4
4
4
4
4
4
4
4
4
4
4
4
4
4
4
4
4
4
4
4.000000002
4.000000013
4.000000076
4.000000411
4.000002029
4.000009116
4.000037255
4.000138509
4.000468988
4.001448871
4.004093596
4.010606175
4.025273366
4.055559181
4.113037324
4.213542594
4.375842275
4.618431967
4.954785957
5.388291121
5.908682735
6.491633744
7.102142034
7.700922355
8.251841141
8.728108214
9.11556964
9.412646301
9.627624758
9.77465631
9.86982593
9.92820039
9.962173197
9.980955774
9.990832435
9.995777796
9.998138313
9.999213571
9.999681498
9.999876239
9.999953825
9.999983446
9.999994293
9.999998106
9.999999395
9.999999814
)
;

boundaryField
{
    left
    {
        type            calculated;
        value           uniform 0;
    }
    right
    {
        type            calculated;
        value           uniform 0;
    }
    sides
    {
        type            empty;
    }
}


// ************************************************************************* //
