/*--------------------------------*- C++ -*----------------------------------*\
| =========                 |                                                 |
| \\      /  F ield         | foam-extend: Open Source CFD                    |
|  \\    /   O peration     | Version:     4.1                                |
|   \\  /    A nd           | Web:         http://www.foam-extend.org         |
|    \\/     M anipulation  |                                                 |
\*---------------------------------------------------------------------------*/
FoamFile
{
    version     2.0;
    format      ascii;
    class       cellScalarField;
    location    "7.7";
    object      T;
}
// * * * * * * * * * * * * * * * * * * * * * * * * * * * * * * * * * * * * * //

dimensions      [0 0 0 0 1 0 0];

internalField   nonuniform 
100
(
(4 1.123197487e-16 3.662445339e-16)
(4 9.332600269e-17 -1.42123952e-14)
(4 7.934740605e-14 6.346010366e-13)
(4 8.059106441e-12 -9.429501502e-12)
(4 8.433869518e-12 3.374024619e-10)
(4.000000008 1.02860032e-08 2.801860747e-09)
(4.000000079 6.638621913e-08 8.762768501e-08)
(4.000002619 3.662614652e-06 2.31721519e-06)
(4.000042879 4.520485275e-05 2.280515673e-05)
(4.000524275 0.0005861179636 0.0003603686174)
(4.006644032 0.007260693114 0.003287783669)
(4.054337295 0.04823414861 0.01438156952)
(4.266273238 0.1790284368 0.03329187855)
(4.846375856 0.4103655647 0.04157946763)
(5.89604482 0.6257424628 0.02150907149)
(7.220619241 0.6700953284 -0.01365306343)
(8.435614554 0.5255300258 -0.03474704218)
(9.273578802 0.312405244 -0.03275917858)
(9.720858685 0.1449884921 -0.02000288373)
(9.910418403 0.05392571934 -0.008973739792)
(9.975695929 0.01645477571 -0.003142370035)
(9.994350045 0.004207170858 -0.0008930381091)
(9.99885922 0.0009185719817 -0.0002120177887)
(9.999797328 0.0001741757239 -4.302889485e-05)
(9.999967932 2.911370296e-05 -7.608010235e-06)
(9.999995431 4.346596232e-06 -1.190743293e-06)
(9.999999408 5.863362942e-07 -1.672107794e-07)
(9.99999993 7.218856591e-08 -2.13116272e-08)
(9.999999992 8.183596461e-09 -2.489861128e-09)
(9.999999999 8.608482346e-10 -2.689362132e-10)
(10 8.459633218e-11 -2.705509029e-11)
(10 7.811840473e-12 -2.552173033e-12)
(10 6.814397937e-13 -2.264491082e-13)
(10 5.77934644e-14 -1.8757214e-14)
(10 2.187639277e-15 -1.884501163e-15)
(10 1.11591361e-15 -4.162461954e-16)
(10 -3.768274433e-16 -2.593220005e-17)
(10 6.325805176e-16 -5.961656747e-16)
(10 3.519918969e-16 1.629681311e-16)
(10 -3.851875614e-17 -2.107588636e-16)
(10 -6.039688022e-17 -4.050625192e-16)
(10 5.83870583e-16 4.661733437e-16)
(10 -1.069738703e-15 -6.321027511e-16)
(10 9.822359259e-16 2.122144205e-17)
(10 -1.663384829e-15 4.469065723e-16)
(10 1.522429112e-15 -6.887242873e-16)
(10 -2.732664288e-16 3.212460551e-16)
(10 -2.479656631e-16 6.15814634e-16)
(10 -2.043072799e-16 2.28705928e-16)
(10 -4.757125293e-16 3.360765915e-16)
(10 -4.336603801e-16 4.353269836e-16)
(10 -2.795633219e-16 -3.276720222e-16)
(10 2.834239794e-16 -1.787416064e-16)
(10 -6.510857842e-19 -3.870434689e-16)
(10 1.66916167e-16 5.642621388e-17)
(10 -3.119443238e-16 2.379465241e-16)
(10 4.59378215e-16 3.832445912e-16)
(10 -3.817957507e-16 -3.41156891e-16)
(10 -3.764786031e-17 1.25218297e-16)
(10 -1.557991558e-16 6.354682154e-16)
(10 -6.271847196e-16 2.79897155e-16)
(10 3.013673618e-17 -1.418887296e-16)
(10 3.376524338e-16 -6.385584562e-17)
(10 -1.71184421e-16 2.263353132e-16)
(10 -2.523298773e-16 -1.508225036e-16)
(10 -2.922187995e-16 -7.778029022e-17)
(10 1.808607958e-16 3.070162787e-16)
(10 -2.49318926e-16 3.164087687e-16)
(10 -1.918092485e-16 5.745622757e-16)
(10 -1.639458028e-16 1.420049572e-16)
(10 -1.300682109e-16 2.757501344e-16)
(10 -2.409990997e-16 1.553484204e-17)
(10 -3.093905255e-16 6.489192761e-17)
(10 3.124138406e-16 -3.661027567e-16)
(10 3.185463172e-17 4.968406569e-17)
(10 -1.456091117e-16 -3.763257675e-16)
(10 4.130560516e-17 4.553089121e-16)
(10 -1.080810088e-16 -2.660973724e-18)
(10 4.231710706e-16 5.910967819e-16)
(10 -2.706746476e-16 1.292976294e-16)
(10 2.353702228e-16 1.995407413e-16)
(10 -2.666489959e-16 -2.68807183e-17)
(10 1.364853921e-16 1.749757891e-17)
(10 -2.188385902e-16 5.564619917e-16)
(10 -1.000862169e-15 5.078880463e-16)
(10 1.354184939e-16 -7.673887637e-17)
(10 4.236895964e-18 -2.400961834e-18)
(10 1.325615644e-19 -7.511991314e-20)
(10 4.147509994e-21 -2.350308642e-21)
(10 1.297649075e-22 -7.353510517e-23)
(10 4.060009799e-24 -2.300724081e-24)
(10 1.270272517e-25 -7.198373192e-26)
(10 3.974355599e-27 -2.252185607e-27)
(10 1.243473524e-28 -7.046508805e-29)
(10 3.890508449e-30 -2.204671151e-30)
(10 1.217239909e-31 -6.897848307e-32)
(10 3.808430225e-33 -2.158159109e-33)
(10 1.191559747e-34 -6.752324105e-35)
(10 3.728083609e-36 -2.112628333e-36)
(10 -1.306035916e-15 3.548033743e-15)
)
;

boundaryField
{
    left
    {
        type            dirichlet;
        value           uniform (4 0 0);
    }
    right
    {
        type            dirichlet;
        value           uniform (4 0 0);
    }
    sides
    {
        type            empty;
    }
}


// ************************************************************************* //
