/*--------------------------------*- C++ -*----------------------------------*\
| =========                 |                                                 |
| \\      /  F ield         | foam-extend: Open Source CFD                    |
|  \\    /   O peration     | Version:     4.1                                |
|   \\  /    A nd           | Web:         http://www.foam-extend.org         |
|    \\/     M anipulation  |                                                 |
\*---------------------------------------------------------------------------*/
FoamFile
{
    version     2.0;
    format      ascii;
    class       cellScalarField;
    location    "4.5";
    object      T;
}
// * * * * * * * * * * * * * * * * * * * * * * * * * * * * * * * * * * * * * //

dimensions      [0 0 0 0 1 0 0];

internalField   nonuniform 10((3.999999999 -6.920202496e-10 1.589837991e-09) (4.000000058 7.068361031e-08 -3.935704508e-08) (3.999999743 -4.080231631e-07 1.916468935e-06) (4.000048337 7.035307203e-05 2.315408851e-05) (4.000470836 0.0003439320796 0.0003707569554) (4.010925083 0.01526414151 0.01001836861) (4.151030984 0.1535497239 0.04793441053) (4.807134305 0.5290244359 0.07164079507) (6.237046039 0.8624956743 0.01711257861) (7.94086085 0.7819731806 -0.05002724289));

boundaryField
{
    left
    {
        type            dirichlet;
        value           uniform (4 0 0);
    }
    right
    {
        type            dirichlet;
        value           uniform (4 0 0);
    }
    sides
    {
        type            empty;
    }
}


// ************************************************************************* //
