/*--------------------------------*- C++ -*----------------------------------*\
| =========                 |                                                 |
| \\      /  F ield         | foam-extend: Open Source CFD                    |
|  \\    /   O peration     | Version:     4.1                                |
|   \\  /    A nd           | Web:         http://www.foam-extend.org         |
|    \\/     M anipulation  |                                                 |
\*---------------------------------------------------------------------------*/
FoamFile
{
    version     2.0;
    format      ascii;
    class       cellScalarField;
    location    "5.5";
    object      T;
}
// * * * * * * * * * * * * * * * * * * * * * * * * * * * * * * * * * * * * * //

dimensions      [0 0 0 0 1 0 0];

internalField   nonuniform 10((4 1.370242844e-11 -1.214334412e-12) (4 -6.261645153e-10 2.21082928e-10) (4.000000017 2.997546132e-08 5.778093045e-09) (4.000000027 -1.781245657e-07 1.126033768e-07) (4.000007904 1.366856357e-05 8.790484523e-06) (4.000140127 0.0001269731205 5.651134359e-05) (4.00188142 0.002347908439 0.0018092297) (4.031572496 0.03618201448 0.01553408023) (4.243448757 0.2008033704 0.04674075556) (4.960749465 0.5299933178 0.05659963566));

boundaryField
{
    left
    {
        type            dirichlet;
        value           uniform (4 0 0);
    }
    right
    {
        type            dirichlet;
        value           uniform (4 0 0);
    }
    sides
    {
        type            empty;
    }
}


// ************************************************************************* //
