/*--------------------------------*- C++ -*----------------------------------*\
| =========                 |                                                 |
| \\      /  F ield         | foam-extend: Open Source CFD                    |
|  \\    /   O peration     | Version:     4.1                                |
|   \\  /    A nd           | Web:         http://www.foam-extend.org         |
|    \\/     M anipulation  |                                                 |
\*---------------------------------------------------------------------------*/
FoamFile
{
    version     2.0;
    format      ascii;
    class       cellScalarField;
    location    "1.9";
    object      T;
}
// * * * * * * * * * * * * * * * * * * * * * * * * * * * * * * * * * * * * * //

dimensions      [0 0 0 0 1 0 0];

internalField   nonuniform 10((4.000483709 0.0003739507932 -0.0005068026497) (4.003936758 0.01004561374 0.02591919622) (4.404331582 0.5196605749 0.1680399302) (6.358868575 1.332749414 0.009007316519) (8.714269447 0.8735252875 -0.1354814335) (9.75170392 0.2274111323 -0.05606494026) (9.969410871 0.03269712732 -0.00974191243) (9.997214732 0.00326292162 -0.001076596373) (9.999794248 0.0002561219477 -9.014028769e-05) (9.999986938 1.698197663e-05 -6.252132153e-06));

boundaryField
{
    left
    {
        type            dirichlet;
        value           uniform (4 0 0);
    }
    right
    {
        type            dirichlet;
        value           uniform (4 0 0);
    }
    sides
    {
        type            empty;
    }
}


// ************************************************************************* //
