/*--------------------------------*- C++ -*----------------------------------*\
| =========                 |                                                 |
| \\      /  F ield         | foam-extend: Open Source CFD                    |
|  \\    /   O peration     | Version:     4.1                                |
|   \\  /    A nd           | Web:         http://www.foam-extend.org         |
|    \\/     M anipulation  |                                                 |
\*---------------------------------------------------------------------------*/
FoamFile
{
    version     2.0;
    format      ascii;
    class       cellScalarField;
    location    "0.5";
    object      T;
}
// * * * * * * * * * * * * * * * * * * * * * * * * * * * * * * * * * * * * * //

dimensions      [0 0 0 0 1 0 0];

internalField   nonuniform 10((5.05218239 1.737763814 0.4666020919) (9.000863865 1.233850879 -0.3947710935) (9.949075031 0.06984621828 -0.02599564433) (9.997955374 0.002996422894 -0.001228342283) (9.999925957 0.0001142286857 -5.024816097e-05) (9.99999747 4.071601269e-06 -1.890153114e-06) (9.999999917 1.388449955e-07 -6.723026981e-08) (9.999999997 4.586108166e-09 -2.296392326e-09) (10 1.478294293e-10 -7.605152176e-11) (10 4.670487908e-12 -2.453600248e-12));

boundaryField
{
    left
    {
        type            dirichlet;
        value           uniform (4 0 0);
    }
    right
    {
        type            dirichlet;
        value           uniform (4 0 0);
    }
    sides
    {
        type            empty;
    }
}


// ************************************************************************* //
