/*--------------------------------*- C++ -*----------------------------------*\
| =========                 |                                                 |
| \\      /  F ield         | foam-extend: Open Source CFD                    |
|  \\    /   O peration     | Version:     4.1                                |
|   \\  /    A nd           | Web:         http://www.foam-extend.org         |
|    \\/     M anipulation  |                                                 |
\*---------------------------------------------------------------------------*/
FoamFile
{
    version     2.0;
    format      ascii;
    class       cellScalarField;
    location    "44.9";
    object      T;
}
// * * * * * * * * * * * * * * * * * * * * * * * * * * * * * * * * * * * * * //

dimensions      [0 0 0 0 1 0 0];

internalField   nonuniform 
100
(
(4 -5.703630593e-17 1.624202108e-17)
(4 -5.907149292e-17 -7.047919077e-17)
(4 -2.310811722e-16 4.529879082e-17)
(4 2.123574136e-16 1.01950377e-16)
(4 -2.318476735e-17 -5.568809938e-17)
(4 -2.97237696e-16 5.986378641e-17)
(4 2.801908842e-16 7.399151891e-17)
(4 -4.722223067e-16 -3.253069169e-17)
(4 8.454777506e-16 1.642690766e-16)
(4 -1.477742128e-15 -1.406324756e-16)
(4 5.935085406e-17 1.433056384e-16)
(4 2.929657543e-16 1.542811576e-16)
(4 4.678024459e-16 -8.718991891e-17)
(4 2.947980106e-17 2.648243015e-17)
(4 -9.443868204e-17 -5.875646609e-17)
(4 8.203729976e-17 -2.366967849e-16)
(4 4.902546143e-16 1.418194834e-16)
(4 -6.230642141e-16 3.600675124e-17)
(4 4.342015593e-16 -7.679356018e-17)
(4 -4.022392288e-16 4.225582833e-16)
(4 2.203316508e-16 -1.361322302e-16)
(4 2.581540768e-16 1.907075899e-17)
(4 -6.685010576e-17 7.979316778e-17)
(4 -8.942520272e-17 1.686911545e-18)
(4 -6.857777941e-17 -1.372751757e-16)
(4 -6.928226606e-17 -4.787430545e-17)
(4 -2.385505828e-16 3.508037138e-17)
(4 -1.931404258e-16 -6.117938342e-17)
(4 -3.97712761e-16 -9.160008955e-17)
(4 4.28367281e-16 -2.765440864e-17)
(4 -7.214142282e-17 3.379322614e-17)
(4 -2.378327521e-16 -7.814096126e-17)
(4 6.794321646e-17 -1.428350465e-16)
(4 -5.250525605e-16 1.995456344e-16)
(4 5.481067738e-16 7.760466861e-17)
(4 -6.706529976e-16 -3.013983482e-16)
(4 1.307893955e-15 -4.136625567e-17)
(4 -9.430842766e-16 6.380322532e-17)
(4 3.131867464e-16 1.563460889e-16)
(4 -1.190154749e-17 -8.952856107e-17)
(4 8.508684107e-17 1.033927256e-16)
(4 -1.745145119e-16 1.36269961e-17)
(4 4.635162698e-18 1.140478886e-16)
(4 -1.376392806e-16 9.409784583e-18)
(4 -3.4438887e-16 -8.066428076e-17)
(4 7.336702153e-16 1.649385502e-16)
(4 -8.219281676e-16 8.494784748e-17)
(4 8.121694587e-16 5.69780985e-17)
(4 -9.435674448e-16 3.423975332e-16)
(4 3.149759363e-16 -8.525527693e-18)
(4 5.370154524e-17 1.174250291e-16)
(4 2.198466121e-17 -8.116656545e-17)
(4 -1.014051201e-16 2.426789488e-16)
(4 -1.270297593e-16 2.178576984e-16)
(4 -1.024975828e-16 1.579946039e-17)
(4 -2.085340698e-16 -6.654611044e-17)
(4 2.33053945e-17 -1.259206024e-16)
(4 1.028996938e-16 -1.203097904e-16)
(4 9.422142413e-16 5.538236773e-16)
(4 6.620720333e-15 3.397514784e-15)
(4 6.117889486e-14 2.869939609e-14)
(4 4.988012262e-13 2.070845846e-13)
(4 3.621397441e-12 1.447660047e-12)
(4 2.46278657e-11 9.43189861e-12)
(4 1.563351543e-10 5.717221775e-11)
(4.000000001 9.233350064e-10 3.211363727e-10)
(4.000000006 5.057119487e-09 1.665889946e-09)
(4.000000033 2.561247796e-08 7.958085421e-09)
(4.000000161 1.196781049e-07 3.493159703e-08)
(4.000000728 5.151157174e-07 1.406842882e-07)
(4.000003036 2.040567787e-06 5.19489152e-07)
(4.00001169 7.438374926e-06 1.758617791e-06)
(4.000041578 2.496106393e-05 5.460171764e-06)
(4.000136742 7.717631637e-05 1.55600265e-05)
(4.000416364 0.0002201247056 4.073881925e-05)
(4.001175586 0.0005800299512 9.810013231e-05)
(4.003083334 0.001414264775 0.0002175010692)
(4.007526913 0.003196331119 0.0004444349479)
(4.017137204 0.006707715861 0.0008376235926)
(4.036469081 0.0130937568 0.00145676218)
(4.072700523 0.02381653043 0.002337954134)
(4.13607307 0.0404353343 0.003460275911)
(4.239690987 0.06418548008 0.004715157115)
(4.398319639 0.09541333466 0.005896312745)
(4.626046995 0.1330326318 0.006726098908)
(4.933081467 0.1742372111 0.006921579768)
(5.322419367 0.2146795491 0.006284051266)
(5.78740661 0.2491828039 0.004779263128)
(6.311146931 0.2728422942 0.002572926625)
(6.868225998 0.2821883862 1.477014474e-06)
(7.428485408 0.2760247613 -0.002514898743)
(7.961894006 0.2556626059 -0.004585099794)
(8.443219506 0.2244955215 -0.005944191617)
(8.855334734 0.1870956957 -0.006502636312)
(9.190513689 0.1481542835 -0.006337948907)
(9.449738059 0.1115893786 -0.005642012248)
(9.640576068 0.0800276072 -0.004650366328)
(9.774445037 0.05470187666 -0.00357949402)
(9.864011372 0.03567261174 -0.002588060066)
(9.921221369 0.02221525073 -0.001765223413)
)
;

boundaryField
{
    left
    {
        type            dirichlet;
        value           uniform (4 0 0);
    }
    right
    {
        type            dirichlet;
        value           uniform (4 0 0);
    }
    sides
    {
        type            empty;
    }
}


// ************************************************************************* //
