/*--------------------------------*- C++ -*----------------------------------*\
| =========                 |                                                 |
| \\      /  F ield         | foam-extend: Open Source CFD                    |
|  \\    /   O peration     | Version:     4.1                                |
|   \\  /    A nd           | Web:         http://www.foam-extend.org         |
|    \\/     M anipulation  |                                                 |
\*---------------------------------------------------------------------------*/
FoamFile
{
    version     2.0;
    format      ascii;
    class       cellScalarField;
    location    "21";
    object      T;
}
// * * * * * * * * * * * * * * * * * * * * * * * * * * * * * * * * * * * * * //

dimensions      [0 0 0 0 1 0 0];

internalField   nonuniform 
100
(
(4 -5.703630593e-17 1.624202108e-17)
(4 2.608270364e-17 2.800436541e-17)
(4 -1.682011555e-16 1.648086326e-16)
(4 -8.998951259e-17 2.1903239e-17)
(4 2.179175852e-16 -1.361666583e-16)
(4 -5.990251625e-16 3.802718873e-17)
(4 4.584424129e-16 -5.690444471e-17)
(4 -4.37457947e-16 -9.525700235e-17)
(4 8.715869769e-16 2.833819312e-17)
(4 -1.485696916e-15 9.346999156e-17)
(4 1.508414636e-16 -1.447581811e-16)
(4 1.285326267e-15 -1.498909057e-16)
(4 -6.149709879e-16 -2.26642015e-16)
(4 4.735891566e-16 -2.895501648e-16)
(4 6.150303974e-16 -1.299874538e-16)
(4 -4.17815575e-16 9.600992895e-18)
(4 1.623198306e-16 1.368830129e-16)
(4 1.282480485e-16 -4.775144676e-17)
(4 9.466308815e-16 4.256685392e-16)
(4 2.432726051e-15 -5.017090887e-16)
(4 3.143175274e-16 6.79204251e-16)
(4 2.64956607e-14 1.773624989e-14)
(4 4.380451445e-13 2.576530537e-13)
(4 6.189822522e-12 3.495180651e-12)
(4 7.935780843e-11 4.290101829e-11)
(4.000000001 9.303092534e-10 4.827525833e-10)
(4.00000001 9.936826505e-09 4.887336106e-09)
(4.000000094 9.507044003e-08 4.39794608e-08)
(4.000000834 8.104657307e-07 3.504568422e-07)
(4.000006562 6.093577656e-06 2.421124217e-06)
(4.000045141 3.944607643e-05 1.405941611e-05)
(4.000265844 0.000214709644 6.71576903e-05)
(4.001322447 0.0009706222586 0.0002618134407)
(4.005536579 0.003639011823 0.0008339693118)
(4.019578764 0.01137314073 0.002181070142)
(4.058931911 0.02987092615 0.004706684282)
(4.152444931 0.06652411791 0.008403324997)
(4.342444521 0.1267408351 0.01238475413)
(4.675201798 0.2082970073 0.01488214109)
(5.181347037 0.2975934323 0.01405473329)
(5.854670619 0.3722250741 0.009238116411)
(6.64309861 0.4102455682 0.001646414926)
(7.460548045 0.4007997835 -0.006156925861)
(8.215118787 0.3490200736 -0.01167556003)
(8.838411491 0.2722940432 -0.01371913302)
(9.301330976 0.191236435 -0.01267155951)
(9.611846381 0.1214511857 -0.009859043803)
(9.800758025 0.07004470293 -0.006668981361)
(9.905415376 0.0368330837 -0.003993844346)
(9.958414476 0.01772762448 -0.002143272221)
(9.983036899 0.007837819131 -0.001039866015)
(9.993567738 0.00319435813 -0.0004593433476)
(9.997727871 0.001204096763 -0.0001858173867)
(9.999250685 0.0004211268549 -6.918327788e-05)
(9.999768778 0.0001370770188 -2.381253163e-05)
(9.999933088 4.164738939e-05 -7.607328905e-06)
(9.999981801 1.184406421e-05 -2.263929922e-06)
(9.999995337 3.161339273e-06 -6.297338426e-07)
(9.999998872 7.939940458e-07 -1.642366586e-07)
(9.999999742 1.881091826e-07 -4.027807879e-08)
(9.999999944 4.213802099e-08 -9.314102547e-09)
(9.999999988 8.945190655e-09 -2.036123219e-09)
(9.999999998 1.803404846e-09 -4.218061354e-10)
(10 3.460072685e-10 -8.299655898e-11)
(10 6.329967387e-11 -1.554449165e-11)
(10 1.106538613e-11 -2.77844235e-12)
(10 1.84533092e-12 -4.743202755e-13)
(10 2.927282333e-13 -7.637710286e-14)
(10 4.621495608e-14 -1.225617283e-14)
(10 8.366373916e-15 -2.481013562e-15)
(10 2.269587577e-17 -6.449749023e-16)
(10 1.474363487e-18 -3.192148704e-16)
(10 4.91684105e-16 -4.118415093e-16)
(10 1.774570035e-16 -1.046308949e-16)
(10 3.605712635e-16 -1.452891628e-17)
(10 4.412404304e-16 1.278462099e-16)
(10 -4.33670264e-17 -4.207554906e-16)
(10 5.349430368e-17 7.437769733e-17)
(10 -2.628883005e-16 -2.399837734e-16)
(10 1.146238548e-16 -4.808124115e-16)
(10 1.177998007e-16 -9.758263613e-17)
(10 1.857122817e-16 -1.439579083e-16)
(10 -2.252385842e-16 7.737905921e-17)
(10 3.240105709e-17 -4.688308291e-16)
(10 1.153915955e-16 -2.593040487e-17)
(10 2.629785694e-16 -8.199443748e-17)
(10 -3.302138988e-18 2.94961044e-16)
(10 2.626369916e-16 1.277587399e-16)
(10 3.115764427e-16 4.339168618e-16)
(10 -5.121806763e-16 2.033568026e-16)
(10 -3.193197e-16 -6.08443772e-16)
(10 1.435666675e-16 1.048524953e-16)
(10 -4.688363849e-17 9.647163953e-17)
(10 -1.284244841e-16 -2.062849286e-16)
(10 3.52001179e-16 -2.741350378e-16)
(10 2.776091403e-16 -2.312969464e-16)
(10 -2.676407533e-17 4.658304377e-16)
(10 -4.489157069e-16 -1.217586352e-16)
(10 4.164566897e-16 -6.616388162e-16)
(10 8.323485225e-17 3.278644022e-15)
)
;

boundaryField
{
    left
    {
        type            dirichlet;
        value           uniform (4 0 0);
    }
    right
    {
        type            dirichlet;
        value           uniform (4 0 0);
    }
    sides
    {
        type            empty;
    }
}


// ************************************************************************* //
