/*--------------------------------*- C++ -*----------------------------------*\
| =========                 |                                                 |
| \\      /  F ield         | foam-extend: Open Source CFD                    |
|  \\    /   O peration     | Version:     4.1                                |
|   \\  /    A nd           | Web:         http://www.foam-extend.org         |
|    \\/     M anipulation  |                                                 |
\*---------------------------------------------------------------------------*/
FoamFile
{
    version     2.0;
    format      ascii;
    class       cellScalarField;
    location    "8.6";
    object      T;
}
// * * * * * * * * * * * * * * * * * * * * * * * * * * * * * * * * * * * * * //

dimensions      [0 0 0 0 1 0 0];

internalField   nonuniform 
100
(
(4 -5.703630593e-17 1.624202108e-17)
(4 2.335502749e-16 2.435615894e-16)
(4 3.392128979e-15 -5.572842027e-15)
(4 -6.423951066e-14 2.129508545e-13)
(4 5.860692273e-12 -1.131798282e-12)
(4 -1.946923682e-11 7.587139837e-11)
(4.000000002 3.69239416e-09 1.753245784e-09)
(4.000000035 3.071898856e-08 2.35415733e-08)
(4.00000078 1.054678253e-06 7.519656921e-07)
(4.000014385 1.608952149e-05 8.072885325e-06)
(4.000172295 0.0001847791232 0.0001071963653)
(4.002089782 0.002290537238 0.001121288337)
(4.019019779 0.01798711078 0.006215921525)
(4.109700088 0.08234345672 0.01911867217)
(4.415247468 0.2362518011 0.03434820731)
(5.103682095 0.4549893605 0.0348257515)
(6.194660649 0.619632769 0.01246626501)
(7.459883961 0.6211589251 -0.01690714416)
(8.568580282 0.4734385659 -0.03199042168)
(9.322664538 0.2819495241 -0.02885336369)
(9.730179958 0.1343616516 -0.0178033093)
(9.908855659 0.05233865021 -0.008312172153)
(9.973635734 0.01698943055 -0.00308964098)
(9.99339811 0.004676757761 -0.0009452015927)
(9.998552767 0.001109218457 -0.0002439899595)
(9.999719223 0.0002299463892 -5.421598211e-05)
(9.999951289 4.220602881e-05 -1.054434733e-05)
(9.999992371 6.938591227e-06 -1.820513536e-06)
(9.999998912 1.032243428e-06 -2.824443113e-07)
(9.999999857 1.40241224e-07 -3.979335585e-08)
(9.999999983 1.754182019e-08 -5.13815843e-09)
(9.999999998 2.034720578e-09 -6.129163783e-10)
(10 2.202637482e-10 -6.802151663e-11)
(10 2.237870692e-11 -7.066367274e-12)
(10 2.146096064e-12 -6.914874629e-13)
(10 1.973447384e-13 -6.584326256e-14)
(10 1.497321778e-14 -5.285015143e-15)
(10 -1.093011664e-15 -3.456769238e-17)
(10 1.572992881e-15 -8.285863659e-16)
(10 -6.409546324e-16 -2.408545963e-16)
(10 7.324644455e-17 -2.134566872e-16)
(10 2.314976049e-16 -4.441126105e-16)
(10 -1.209225232e-16 -1.969914205e-16)
(10 6.575010741e-17 7.882605764e-17)
(10 -2.56460675e-16 1.212114818e-16)
(10 1.461379136e-16 -1.579849328e-16)
(10 -4.283045072e-16 1.465038184e-16)
(10 1.895624614e-16 -4.702451261e-16)
(10 -7.00410778e-16 -3.390087743e-16)
(10 7.619506418e-16 4.514163812e-16)
(10 -1.072178323e-15 3.567632427e-16)
(10 7.173137449e-16 -5.79259448e-16)
(10 -3.00440249e-16 4.672228954e-16)
(10 -3.174394265e-16 3.027138173e-16)
(10 -5.142398316e-17 -1.408055221e-16)
(10 4.094799618e-16 -4.903431441e-16)
(10 2.276790436e-16 1.602312177e-16)
(10 -4.729264502e-16 1.470596278e-16)
(10 1.416524825e-16 4.287662461e-16)
(10 1.998508505e-16 6.40968356e-16)
(10 1.24078144e-16 5.60453063e-16)
(10 -2.910498502e-16 -4.103226999e-16)
(10 2.834340372e-16 9.866712443e-17)
(10 -5.409408863e-16 2.711401413e-16)
(10 1.638810737e-16 3.382575751e-16)
(10 1.151716666e-16 -3.509583719e-16)
(10 -2.127281548e-16 2.433090618e-16)
(10 -2.980814691e-17 9.862191639e-17)
(10 -3.427209817e-16 4.588437868e-16)
(10 -5.61969994e-17 -1.244791548e-16)
(10 1.058443517e-17 -3.079709449e-16)
(10 -1.095728618e-16 1.724493176e-16)
(10 -3.152749722e-16 -3.063104395e-16)
(10 -3.405254462e-16 -2.392138052e-16)
(10 2.89519004e-16 4.494675869e-16)
(10 -4.884724923e-16 4.162309362e-16)
(10 -3.416005079e-17 -2.017949339e-17)
(10 -1.211978972e-16 7.451010497e-17)
(10 -2.0783034e-16 3.386079116e-16)
(10 -3.460344677e-16 -5.48222837e-17)
(10 -4.077308312e-16 -3.072755195e-17)
(10 5.943933883e-16 -4.712290685e-16)
(10 -6.475134384e-18 1.05236753e-16)
(10 -1.593671191e-16 -5.750183036e-16)
(10 3.610322661e-16 -1.397187613e-16)
(10 -5.959907549e-17 -9.052737729e-17)
(10 3.634839453e-16 -1.278542971e-16)
(10 -1.675796112e-16 -3.525298529e-17)
(10 3.711401597e-16 3.213878139e-16)
(10 -4.577580063e-16 -7.78076163e-17)
(10 2.61971127e-16 2.944102588e-17)
(10 -1.365836193e-16 -1.744382481e-17)
(10 2.188365319e-16 -5.564608655e-16)
(10 1.000862126e-15 -5.078880228e-16)
(10 -1.354184948e-16 7.673887687e-17)
(10 -4.236895983e-18 2.400961845e-18)
(10 -1.325615648e-19 7.511991335e-20)
(10 -4.147510002e-21 2.350308647e-21)
(10 -1.297649077e-22 7.353510526e-23)
(10 -1.402835947e-15 3.744043175e-15)
)
;

boundaryField
{
    left
    {
        type            dirichlet;
        value           uniform (4 0 0);
    }
    right
    {
        type            dirichlet;
        value           uniform (4 0 0);
    }
    sides
    {
        type            empty;
    }
}


// ************************************************************************* //
