/*--------------------------------*- C++ -*----------------------------------*\
| =========                 |                                                 |
| \\      /  F ield         | foam-extend: Open Source CFD                    |
|  \\    /   O peration     | Version:     4.1                                |
|   \\  /    A nd           | Web:         http://www.foam-extend.org         |
|    \\/     M anipulation  |                                                 |
\*---------------------------------------------------------------------------*/
FoamFile
{
    version     2.0;
    format      ascii;
    class       cellScalarField;
    location    "24.2";
    object      T;
}
// * * * * * * * * * * * * * * * * * * * * * * * * * * * * * * * * * * * * * //

dimensions      [0 0 0 0 1 0 0];

internalField   nonuniform 
100
(
(4 -5.703630593e-17 1.624202108e-17)
(4 7.878204426e-17 -9.235280165e-17)
(4 1.823913345e-17 1.30961226e-16)
(4 -6.230063267e-17 3.416476862e-16)
(4 -4.049230063e-17 -1.454818168e-17)
(4 -2.721598849e-16 -3.944295272e-17)
(4 3.914551659e-16 1.852704039e-16)
(4 -5.074557882e-16 -5.12816675e-17)
(4 8.202246873e-16 -4.402894992e-17)
(4 -1.442853445e-15 1.216912571e-16)
(4 2.239265145e-16 4.496564293e-17)
(4 1.103886029e-15 6.039299687e-18)
(4 -7.489658287e-16 5.334610667e-17)
(4 2.031593843e-16 7.232502172e-17)
(4 6.720624415e-17 -1.829954319e-17)
(4 2.565140824e-17 -1.350496476e-16)
(4 7.416935656e-17 1.874963893e-16)
(4 -4.127414905e-16 -1.648714965e-16)
(4 9.680185364e-16 2.514804015e-16)
(4 -1.108131159e-15 -6.090387476e-17)
(4 1.166522617e-15 -1.212753398e-16)
(4 -9.112270197e-16 4.561146304e-17)
(4 6.572929215e-16 1.166992578e-16)
(4 -6.549267174e-16 1.18673676e-16)
(4 6.459340683e-16 2.508011872e-16)
(4 2.426912728e-15 1.350153484e-15)
(4 3.072679674e-14 1.648056114e-14)
(4 3.873858292e-13 2.157577792e-13)
(4 4.845136146e-12 2.589731645e-12)
(4 5.555927988e-11 2.852493491e-11)
(4.000000001 5.857526053e-10 2.876538704e-10)
(4.000000006 5.634409157e-09 2.62596106e-09)
(4.00000005 4.900679773e-08 2.153647035e-08)
(4.000000406 3.826875083e-07 1.571798933e-07)
(4.000002951 2.651110318e-06 1.003261027e-06)
(4.000018914 1.602435636e-05 5.493895274e-06)
(4.000105628 8.328863087e-05 2.546820499e-05)
(4.000509646 0.0003692992027 9.938706229e-05)
(4.002118731 0.001394796156 0.0003265099303)
(4.007604452 0.004500402747 0.0009057169164)
(4.023681667 0.01247117981 0.002129453231)
(4.06441647 0.02986978402 0.004256728558)
(4.154194945 0.06224213822 0.007242690798)
(4.327379821 0.1135684913 0.01046137021)
(4.621522179 0.1825579633 0.01270108056)
(5.063854327 0.2600101371 0.01262613886)
(5.655904407 0.3298602433 0.009539811981)
(6.364680238 0.3745934932 0.003940110034)
(7.127071965 0.3825365735 -0.002587903091)
(7.86704345 0.3527991727 -0.008125608726)
(8.517700902 0.2950299419 -0.01132040169)
(9.03796157 0.2245572932 -0.01186959724)
(9.417591587 0.1561198086 -0.01039156923)
(9.671238994 0.09947752128 -0.007912528346)
(9.82691384 0.05828036713 -0.005352956053)
(9.914947419 0.03149050817 -0.003260235718)
(9.960950423 0.01573868506 -0.001804124653)
(9.98322685 0.007296367803 -0.0009133870079)
(9.993249715 0.003146035762 -0.0004254277358)
(9.997450653 0.001264919789 -0.0001831473606)
(9.999094979 0.000475429252 -7.316942805e-05)
(9.999697481 0.0001674454731 -2.722486642e-05)
(9.999904618 5.538961517e-05 -9.464815698e-06)
(9.999971585 1.724713616e-05 -3.08357228e-06)
(9.999991988 5.066061764e-06 -9.440195999e-07)
(9.999997858 1.406649884e-06 -2.72271331e-07)
(9.999999456 3.6993713e-07 -7.415786244e-08)
(9.999999869 9.232698577e-08 -1.911732384e-08)
(9.99999997 2.190734018e-08 -4.674534052e-09)
(9.999999993 4.95087905e-09 -1.086349961e-09)
(9.999999999 1.067451193e-09 -2.404112689e-10)
(10 2.19937895e-10 -5.075644657e-11)
(10 4.337157048e-11 -1.024143098e-11)
(10 8.196145285e-12 -1.97564081e-12)
(10 1.485931379e-12 -3.666717831e-13)
(10 2.588101282e-13 -6.54279593e-14)
(10 4.647396344e-14 -1.115209241e-14)
(10 8.243921253e-15 -2.134117554e-15)
(10 8.046767374e-17 -2.891013681e-16)
(10 2.426250943e-16 -5.536604245e-16)
(10 -1.542643344e-16 1.358441003e-16)
(10 -8.697895572e-17 -2.474792151e-16)
(10 -4.000792334e-16 9.074886609e-17)
(10 -3.115119554e-16 2.916249346e-16)
(10 7.317443473e-17 8.816770822e-17)
(10 -3.156065852e-16 1.915020774e-16)
(10 2.272236699e-16 -2.512936395e-16)
(10 2.660352529e-16 -6.98990311e-17)
(10 -7.643226547e-17 3.406874466e-16)
(10 -4.905335411e-16 8.346526514e-17)
(10 4.131244391e-16 -3.578284517e-16)
(10 -3.995465248e-17 3.955489136e-16)
(10 -7.192663482e-17 -2.260675182e-16)
(10 -1.384449078e-16 3.761228815e-16)
(10 -8.894728804e-17 -2.279262199e-16)
(10 4.822390227e-18 1.693296873e-16)
(10 -1.634435041e-17 -9.44070895e-17)
(10 -1.771136012e-16 2.619061469e-17)
(10 2.52173067e-16 -9.957604825e-17)
(10 -6.198290121e-16 2.591083014e-15)
)
;

boundaryField
{
    left
    {
        type            dirichlet;
        value           uniform (4 0 0);
    }
    right
    {
        type            dirichlet;
        value           uniform (4 0 0);
    }
    sides
    {
        type            empty;
    }
}


// ************************************************************************* //
