/*--------------------------------*- C++ -*----------------------------------*\
| =========                 |                                                 |
| \\      /  F ield         | foam-extend: Open Source CFD                    |
|  \\    /   O peration     | Version:     4.1                                |
|   \\  /    A nd           | Web:         http://www.foam-extend.org         |
|    \\/     M anipulation  |                                                 |
\*---------------------------------------------------------------------------*/
FoamFile
{
    version     2.0;
    format      ascii;
    class       cellScalarField;
    location    "0.8";
    object      T;
}
// * * * * * * * * * * * * * * * * * * * * * * * * * * * * * * * * * * * * * //

dimensions      [0 0 0 0 1 0 0];

internalField   nonuniform 10((4.157891421 0.3607084478 0.3112796525) (6.784111222 2.007940079 -0.1133717123) (9.494920412 0.5758735139 -0.1763264506) (9.964964484 0.04558578168 -0.01644103189) (9.99819503 0.002515511442 -0.0009834608931) (9.999920701 0.0001154940129 -4.744464873e-05) (9.999996851 4.7298053e-06 -2.00798909e-06) (9.999999883 1.789535619e-07 -7.770234414e-08) (9.999999996 6.383940751e-09 -2.814634692e-09) (10 2.175012022e-10 -9.684182701e-11));

boundaryField
{
    left
    {
        type            dirichlet;
        value           uniform (4 0 0);
    }
    right
    {
        type            dirichlet;
        value           uniform (4 0 0);
    }
    sides
    {
        type            empty;
    }
}


// ************************************************************************* //
