/*--------------------------------*- C++ -*----------------------------------*\
| =========                 |                                                 |
| \\      /  F ield         | foam-extend: Open Source CFD                    |
|  \\    /   O peration     | Version:     4.1                                |
|   \\  /    A nd           | Web:         http://www.foam-extend.org         |
|    \\/     M anipulation  |                                                 |
\*---------------------------------------------------------------------------*/
FoamFile
{
    version     2.0;
    format      ascii;
    class       cellScalarField;
    location    "44.5";
    object      T;
}
// * * * * * * * * * * * * * * * * * * * * * * * * * * * * * * * * * * * * * //

dimensions      [0 0 0 0 1 0 0];

internalField   nonuniform 
100
(
(4 -5.703630593e-17 1.624202108e-17)
(4 -1.414299751e-16 -2.873046803e-17)
(4 -2.563969011e-16 5.742032043e-17)
(4 1.414344937e-16 1.78768661e-16)
(4 3.966379009e-17 -8.026852706e-17)
(4 -6.909763903e-16 1.042944238e-16)
(4 4.340414947e-16 7.831465261e-17)
(4 -2.317854639e-16 1.620710025e-16)
(4 6.342037406e-16 2.308185933e-16)
(4 -1.229866843e-15 -8.417964987e-17)
(4 -1.054436991e-16 3.66710909e-17)
(4 4.813070623e-16 2.077550619e-17)
(4 5.045818551e-16 9.403604567e-17)
(4 -2.374581567e-16 1.6822525e-16)
(4 2.985915078e-16 2.172795943e-16)
(4 -9.732030777e-16 -8.419880098e-17)
(4 1.070061372e-15 -1.010110268e-16)
(4 -4.549504788e-16 4.006849907e-16)
(4 6.471291882e-17 -9.647171295e-18)
(4 -6.406391237e-17 2.340091429e-16)
(4 -4.856672456e-17 -6.037180965e-19)
(4 -1.51068458e-16 9.229819294e-17)
(4 1.300955012e-17 -1.11372367e-16)
(4 4.668950374e-17 1.365646977e-16)
(4 -4.884474681e-17 -5.254274451e-17)
(4 -8.316087136e-17 -1.197166256e-16)
(4 -3.454650428e-17 4.009483545e-17)
(4 -1.9312867e-16 1.837566324e-16)
(4 -6.076542162e-16 1.491384884e-16)
(4 4.255149303e-16 6.838528669e-18)
(4 -1.922320405e-17 2.605100254e-17)
(4 -1.928800622e-16 5.053884136e-17)
(4 1.764008558e-16 2.138117187e-16)
(4 -8.620440104e-16 -2.088831604e-18)
(4 1.008323818e-15 7.11118567e-17)
(4 -1.022581031e-15 2.546994111e-16)
(4 1.027860624e-15 -1.343860318e-16)
(4 -8.230580853e-16 1.246026328e-16)
(4 3.919160036e-16 6.922206515e-17)
(4 -2.074478071e-16 3.332693173e-16)
(4 5.536724372e-17 1.651086741e-17)
(4 -1.360640587e-16 -8.699369707e-18)
(4 -2.221929189e-16 -4.450612192e-17)
(4 -3.742552134e-17 2.822615027e-17)
(4 -3.217020625e-16 1.690899722e-16)
(4 4.971511936e-16 7.379360125e-17)
(4 -8.073972024e-16 1.364948697e-17)
(4 7.63649976e-16 6.395599415e-17)
(4 -7.478809376e-16 1.121183368e-16)
(4 1.502127659e-16 -5.009085754e-18)
(4 1.500854086e-16 -4.42868774e-17)
(4 -1.04445001e-18 -2.695285738e-17)
(4 9.396294146e-17 1.002999024e-16)
(4 -2.430155484e-16 -1.427990964e-16)
(4 2.927545035e-17 1.171794491e-18)
(4 -1.197219062e-16 -1.455132014e-16)
(4 1.341068628e-16 -6.719518126e-17)
(4 3.202003423e-16 4.813603983e-16)
(4 3.697437131e-15 1.669716686e-15)
(4 2.915616065e-14 1.40656798e-14)
(4 2.534332738e-13 1.079488627e-13)
(4 1.906078392e-12 7.758081836e-13)
(4 1.335333404e-11 5.21266669e-12)
(4 8.738169007e-11 3.26150512e-11)
(4.000000001 5.324765679e-10 1.892532047e-10)
(4.000000004 3.010884359e-09 1.014793005e-09)
(4.00000002 1.574912564e-08 5.012412626e-09)
(4.000000101 7.600937045e-08 2.274819294e-08)
(4.000000469 3.378312732e-07 9.468997911e-08)
(4.000002015 1.381192584e-06 3.611440713e-07)
(4.000007992 5.192137923e-06 1.261653184e-06)
(4.000029262 1.795021553e-05 4.038226124e-06)
(4.000098964 5.711423025e-05 1.18500613e-05)
(4.000309509 0.0001674409783 3.191066353e-05)
(4.000896491 0.0004529354094 7.894128525e-05)
(4.002409111 0.001132306873 0.0001795999872)
(4.006017921 0.002620543579 0.0003761761456)
(4.014002777 0.005624573305 0.0007259945602)
(4.030415981 0.01121600653 0.001291768465)
(4.061813724 0.020816729 0.002119410847)
(4.117806152 0.03602255589 0.003204997093)
(4.211049564 0.05821947599 0.004460915693)
(4.356286847 0.08802704128 0.005698694524)
(4.568220976 0.1247144744 0.00664647826)
(4.858393045 0.1658232126 0.007008539845)
(5.231719155 0.2072297651 0.006554710858)
(5.683702613 0.2437610419 0.005208571574)
(6.199357723 0.2702626289 0.003096545814)
(6.754467126 0.2828131432 0.000532218685)
(7.319065746 0.2796834044 -0.002063085125)
(7.862295057 0.2617154454 -0.004274700062)
(8.357324083 0.2320123643 -0.005801111562)
(8.785071073 0.1950824699 -0.006515820494)
(9.135936569 0.1557545094 -0.006469527082)
(9.40944149 0.118209647 -0.005842429361)
(9.612265573 0.0853719909 -0.004872533518)
(9.755500687 0.05873201631 -0.003788007347)
(9.851925361 0.03852703353 -0.002762419922)
(9.913863307 0.02412179442 -0.001898292868)
(9.951861714 0.01442839462 -0.001233496571)
)
;

boundaryField
{
    left
    {
        type            dirichlet;
        value           uniform (4 0 0);
    }
    right
    {
        type            dirichlet;
        value           uniform (4 0 0);
    }
    sides
    {
        type            empty;
    }
}


// ************************************************************************* //
