/*--------------------------------*- C++ -*----------------------------------*\
| =========                 |                                                 |
| \\      /  F ield         | foam-extend: Open Source CFD                    |
|  \\    /   O peration     | Version:     4.1                                |
|   \\  /    A nd           | Web:         http://www.foam-extend.org         |
|    \\/     M anipulation  |                                                 |
\*---------------------------------------------------------------------------*/
FoamFile
{
    version     2.0;
    format      ascii;
    class       cellScalarField;
    location    "44.3";
    object      T;
}
// * * * * * * * * * * * * * * * * * * * * * * * * * * * * * * * * * * * * * //

dimensions      [0 0 0 0 1 0 0];

internalField   nonuniform 
100
(
(4 -5.703630593e-17 1.624202108e-17)
(4 -2.058166054e-16 -2.01811575e-16)
(4 -1.636069518e-16 -9.421210899e-17)
(4 9.535413775e-17 1.700459953e-16)
(4 1.351989087e-16 -1.561832352e-16)
(4 -5.927044316e-16 7.833404616e-17)
(4 3.990745196e-16 2.795107025e-17)
(4 -3.933063229e-16 2.076473869e-16)
(4 5.794044296e-16 7.988956622e-17)
(4 -1.410408653e-15 -1.418424136e-16)
(4 -1.358215693e-19 -4.979023394e-18)
(4 3.594773726e-16 -2.804801833e-17)
(4 5.81570144e-16 1.772509894e-16)
(4 -2.798643037e-16 6.584472597e-17)
(4 5.621319678e-16 3.069090685e-17)
(4 -7.105610503e-16 -1.524901175e-16)
(4 4.25300781e-16 -3.130982813e-16)
(4 1.752637416e-16 -2.464926599e-16)
(4 -2.003008641e-16 -1.549803394e-16)
(4 2.459465513e-16 -1.99985388e-16)
(4 5.251212012e-17 1.928993791e-16)
(4 -7.820003308e-17 1.037941276e-16)
(4 1.265373452e-17 1.814935672e-16)
(4 2.86046537e-18 9.532704949e-17)
(4 -2.086003851e-17 -1.996299352e-17)
(4 -5.727544638e-17 -3.058116325e-17)
(4 -2.914865995e-17 4.310836683e-17)
(4 -6.725968409e-17 1.233430912e-16)
(4 -5.584080351e-16 9.162743193e-17)
(4 4.999293086e-16 -7.810121349e-17)
(4 4.929079235e-18 -8.641151707e-17)
(4 -2.46872708e-16 -2.678188546e-17)
(4 4.495955804e-16 3.575306819e-17)
(4 -1.265261999e-15 1.24459476e-16)
(4 1.112449973e-15 -1.666840041e-16)
(4 -6.256624417e-16 -3.549633032e-17)
(4 9.281924401e-16 5.275605866e-17)
(4 -9.668567061e-16 2.775857544e-17)
(4 3.481997112e-16 7.64538746e-17)
(4 -1.617760801e-16 1.514954976e-16)
(4 -1.801333887e-16 -1.475788855e-16)
(4 1.432463304e-16 -1.511369352e-16)
(4 -9.669073901e-17 -7.097380576e-17)
(4 -1.085261008e-16 -2.312588439e-16)
(4 -1.125337624e-16 6.963086368e-17)
(4 7.05125109e-16 5.398465809e-17)
(4 -9.714390722e-16 -1.577197478e-17)
(4 8.154398761e-16 1.153067666e-17)
(4 -8.603493232e-16 2.961958107e-16)
(4 3.215792152e-16 2.505577941e-17)
(4 -1.18850597e-16 -1.970943404e-16)
(4 1.654933679e-16 -1.69818026e-16)
(4 5.583603099e-17 2.250169525e-17)
(4 -1.024810745e-16 -3.778025764e-17)
(4 -7.827200905e-18 -7.298149028e-17)
(4 -6.130028729e-17 -5.319908168e-17)
(4 2.092498507e-16 2.333455809e-16)
(4 1.1889434e-15 3.809789922e-16)
(4 6.762916576e-15 2.751960279e-15)
(4 6.17792679e-14 2.814728824e-14)
(4 5.02902977e-13 2.109757784e-13)
(4 3.700185699e-12 1.488590238e-12)
(4 2.543760526e-11 9.809958012e-12)
(4 1.631999455e-10 6.00934917e-11)
(4.000000001 9.736512958e-10 3.409065207e-10)
(4.000000007 5.383101014e-09 1.784657317e-09)
(4.000000035 2.749846823e-08 8.595470705e-09)
(4.000000174 1.294740192e-07 3.799804685e-08)
(4.00000079 5.609442309e-07 1.539410581e-07)
(4.000003313 2.23417153e-06 5.71094188e-07)
(4.000012814 8.17864243e-06 1.939853315e-06)
(4.000045743 2.752884547e-05 6.035496102e-06)
(4.000150828 8.527509583e-05 1.721378933e-05)
(4.000459955 0.0002434032526 4.505009581e-05)
(4.001299332 0.0006411397263 0.0001083059159)
(4.003406407 0.001561077313 0.0002394553083)
(4.008304548 0.00351970285 0.0004873533916)
(4.01886698 0.007361747045 0.0009137977503)
(4.040033107 0.01430986703 0.001579204152)
(4.079517369 0.02589695277 0.002515313253)
(4.148202225 0.04371024961 0.003689622457)
(4.259807467 0.0689259301 0.004975085922)
(4.42947812 0.1017108112 0.006144278709)
(4.671200599 0.1406802104 0.00690362463)
(4.994408512 0.1826636078 0.006968260971)
(5.400613037 0.2229829107 0.006156918915)
(5.881148744 0.2562803878 0.004470304004)
(6.416973581 0.2777054199 0.002116904684)
(6.980887951 0.284091196 -0.0005303874522)
(7.541746421 0.2747225525 -0.003033801381)
(8.069560176 0.2514393533 -0.005008988133)
(8.540120026 0.2180698471 -0.006218419671)
(8.938005623 0.179425971 -0.006610043137)
(9.257451458 0.1402135908 -0.006296484456)
(9.501234433 0.1041796157 -0.005493037734)
(9.678259202 0.07367527659 -0.004443461709)
(9.800702037 0.04964236168 -0.003359345228)
(9.881450285 0.0319012334 -0.002386675999)
(9.932272455 0.01957076778 -0.001599930775)
(9.962828887 0.01147264249 -0.001015199718)
)
;

boundaryField
{
    left
    {
        type            dirichlet;
        value           uniform (4 0 0);
    }
    right
    {
        type            dirichlet;
        value           uniform (4 0 0);
    }
    sides
    {
        type            empty;
    }
}


// ************************************************************************* //
