/*--------------------------------*- C++ -*----------------------------------*\
| =========                 |                                                 |
| \\      /  F ield         | foam-extend: Open Source CFD                    |
|  \\    /   O peration     | Version:     4.1                                |
|   \\  /    A nd           | Web:         http://www.foam-extend.org         |
|    \\/     M anipulation  |                                                 |
\*---------------------------------------------------------------------------*/
FoamFile
{
    version     2.0;
    format      ascii;
    class       cellScalarField;
    location    "37.2";
    object      T;
}
// * * * * * * * * * * * * * * * * * * * * * * * * * * * * * * * * * * * * * //

dimensions      [0 0 0 0 1 0 0];

internalField   nonuniform 
100
(
(4 -5.703630593e-17 1.624202108e-17)
(4 -2.088632222e-17 1.527941876e-16)
(4 -1.807062253e-16 1.716826472e-16)
(4 -5.488253315e-17 4.019452969e-17)
(4 -1.013121799e-16 1.175364599e-16)
(4 -5.612130648e-16 2.129568829e-16)
(4 4.226367306e-16 -3.309493217e-18)
(4 -5.449507067e-16 6.978703276e-17)
(4 1.092806251e-15 -1.059713247e-16)
(4 -1.312657048e-15 -3.128979364e-18)
(4 3.43821365e-16 1.016063554e-16)
(4 -5.503905495e-16 1.060768127e-16)
(4 1.074061583e-15 -5.716446543e-18)
(4 -4.820284504e-16 1.439292352e-16)
(4 2.774568124e-16 7.287273303e-17)
(4 -2.742506563e-16 -1.475459563e-16)
(4 3.61266954e-16 1.455280425e-16)
(4 -4.67321135e-16 9.734611618e-17)
(4 5.473939212e-16 1.93568391e-16)
(4 -7.127003441e-16 -9.983914094e-17)
(4 8.127177646e-16 -2.092403449e-17)
(4 -6.746816553e-16 3.835888542e-16)
(4 2.928502309e-16 -2.367212241e-16)
(4 -4.122851296e-17 2.470492087e-16)
(4 -1.709593626e-17 -1.870831817e-17)
(4 -6.890178006e-17 9.750087571e-18)
(4 3.143355019e-16 1.996914732e-16)
(4 -8.168034293e-16 -3.461532625e-17)
(4 4.665778712e-16 4.553287859e-17)
(4 -3.820703019e-16 -9.444961038e-17)
(4 7.999688538e-16 -1.017562586e-16)
(4 -8.026967248e-16 -3.908807927e-17)
(4 7.211487314e-16 -1.360144334e-16)
(4 -1.407637616e-15 6.428907067e-17)
(4 1.271325786e-15 -2.816272647e-16)
(4 -1.016725648e-15 -6.060693748e-17)
(4 5.477591131e-16 -3.010660617e-17)
(4 -3.875128501e-16 3.537562794e-16)
(4 3.716966764e-16 -1.159215444e-16)
(4 3.139850606e-16 -1.610075365e-16)
(4 -1.320099748e-16 -2.728365572e-17)
(4 -9.918658696e-17 4.413295467e-17)
(4 -1.612721656e-16 2.084671172e-16)
(4 -9.899449734e-17 -3.197460585e-17)
(4 -4.143910331e-16 2.367939635e-16)
(4 8.59519612e-16 1.182523136e-16)
(4 1.177973417e-15 2.111647778e-15)
(4 3.537021434e-14 1.672634877e-14)
(4 3.279449e-13 1.512184046e-13)
(4 2.846720036e-12 1.262063025e-12)
(4 2.298959183e-11 9.779208179e-12)
(4 1.726407467e-10 7.015364293e-11)
(4.000000001 1.199196159e-09 4.632374108e-10)
(4.000000009 7.666110662e-09 2.799562484e-09)
(4.000000054 4.486694803e-08 1.539624278e-08)
(4.000000301 2.392267617e-07 7.665929941e-08)
(4.000001529 1.157406573e-06 3.442418198e-07)
(4.000007081 5.067406847e-06 1.390842512e-06)
(4.000029789 2.005170019e-05 5.051059292e-06)
(4.000113837 7.170873681e-05 1.649067796e-05)
(4.000395517 0.0002319911799 4.844467453e-05)
(4.001251478 0.0006801163176 0.0001282339717)
(4.003614432 0.001810692822 0.0003063269809)
(4.00955374 0.004388480157 0.0006613685112)
(4.023179231 0.009707537937 0.001292144994)
(4.051781145 0.01965015005 0.002286154437)
(4.106856645 0.03649319354 0.003662695953)
(4.204382372 0.06233740859 0.005306842944)
(4.363575812 0.0981844079 0.006930733906)
(4.603673626 0.1429284 0.008103372005)
(4.939010136 0.1927344677 0.008366131279)
(5.373655783 0.2412709475 0.007403666086)
(5.897550739 0.2809660965 0.005196344772)
(6.485935865 0.3049755094 0.002073679301)
(7.102822757 0.309143287 -0.001369403667)
(7.707689025 0.2931738943 -0.004462366654)
(8.263305058 0.2605648371 -0.006670377653)
(8.742236812 0.2173980934 -0.007737072047)
(9.13025336 0.1705460343 -0.007710637987)
(9.426172689 0.1259923878 -0.006864754019)
(9.63893167 0.08778306687 -0.005568028628)
(9.783348224 0.05776513838 -0.00416255163)
(9.876023344 0.03595123659 -0.002890203641)
(9.932323553 0.02119044041 -0.001874099758)
(9.964744326 0.01184435963 -0.001139647023)
(9.982463864 0.006286070038 -0.0006521028943)
(9.991666891 0.003171594883 -0.0003520785044)
(9.996214439 0.001523095206 -0.000179794815)
(9.998354849 0.000697000631 -8.70240615e-05)
(9.999315535 0.0003042906705 -3.99982444e-05)
(9.999727168 0.0001268741879 -1.74872986e-05)
(9.999895727 5.057719261e-05 -7.283944699e-06)
(9.999961759 1.929695976e-05 -2.894720517e-06)
(9.999986532 7.053756019e-06 -1.099099209e-06)
(9.999995441 2.472766399e-06 -3.992251838e-07)
(9.999998516 8.321469922e-07 -1.388933119e-07)
(9.999999535 2.690817493e-07 -4.633759316e-08)
(9.99999986 8.368326554e-08 -1.48408359e-08)
(9.999999959 2.5052806e-08 -4.567934191e-09)
(9.999999989 7.226387489e-09 -1.352579556e-09)
)
;

boundaryField
{
    left
    {
        type            dirichlet;
        value           uniform (4 0 0);
    }
    right
    {
        type            dirichlet;
        value           uniform (4 0 0);
    }
    sides
    {
        type            empty;
    }
}


// ************************************************************************* //
