/*--------------------------------*- C++ -*----------------------------------*\
| =========                 |                                                 |
| \\      /  F ield         | foam-extend: Open Source CFD                    |
|  \\    /   O peration     | Version:     4.1                                |
|   \\  /    A nd           | Web:         http://www.foam-extend.org         |
|    \\/     M anipulation  |                                                 |
\*---------------------------------------------------------------------------*/
FoamFile
{
    version     2.0;
    format      ascii;
    class       cellScalarField;
    location    "22.1";
    object      T;
}
// * * * * * * * * * * * * * * * * * * * * * * * * * * * * * * * * * * * * * //

dimensions      [0 0 0 0 1 0 0];

internalField   nonuniform 
100
(
(4 -5.703630593e-17 1.624202108e-17)
(4 5.44746048e-17 2.048041408e-17)
(4 -1.594064439e-16 3.467269855e-16)
(4 5.03871946e-17 -2.311818007e-16)
(4 4.287103886e-17 -6.223272733e-17)
(4 -4.464694508e-16 3.209702214e-16)
(4 3.885858874e-16 9.445433395e-17)
(4 -3.67615738e-16 1.94097705e-17)
(4 9.984874997e-16 -1.119470552e-16)
(4 -1.487190432e-15 6.873034479e-17)
(4 4.844239229e-16 -1.397070761e-17)
(4 4.784860291e-16 -9.036557552e-18)
(4 -7.059006664e-17 -1.636539174e-16)
(4 -3.763564005e-16 -1.933865401e-16)
(4 7.958510428e-16 1.196283663e-16)
(4 -7.494953448e-16 -1.026865973e-16)
(4 5.270796772e-16 -3.661246841e-16)
(4 -1.188803011e-17 -9.006367276e-17)
(4 -6.819341769e-17 1.446840496e-17)
(4 -1.228643376e-17 2.640267174e-16)
(4 4.361841241e-16 6.450829882e-16)
(4 1.568250599e-15 1.980826915e-16)
(4 3.099772785e-15 1.766216134e-15)
(4 6.264726959e-14 3.692834057e-14)
(4 9.006573331e-13 5.139294034e-13)
(4 1.183481212e-11 6.469927863e-12)
(4 1.420262316e-10 7.455453138e-11)
(4.000000001 1.563036643e-09 7.84042955e-10)
(4.000000015 1.560157672e-08 7.401706137e-09)
(4.000000141 1.397155078e-07 6.232032156e-08)
(4.000001175 1.115857965e-06 4.634229808e-07)
(4.000008668 7.831192446e-06 2.973035631e-06)
(4.000055777 4.72396593e-05 1.605122554e-05)
(4.000308035 0.0002406565205 7.185196012e-05)
(4.001446772 0.001027403837 0.0002655189816)
(4.005771711 0.003677417544 0.0008116080965)
(4.019639888 0.01109371882 0.002061260982)
(4.057419475 0.02841503366 0.004368469564)
(4.145500415 0.06229263181 0.007742796989)
(4.322575146 0.117808476 0.01145311424)
(4.631768066 0.1936492195 0.01398876655)
(5.10389404 0.2785930867 0.0136835873)
(5.738329122 0.3530383713 0.009760301751)
(6.492999799 0.3964003474 0.003031684369)
(7.29195127 0.396529066 -0.004374322372)
(8.048539705 0.3551744822 -0.01013037386)
(8.692429451 0.2862078795 -0.01286086227)
(9.187062301 0.2084067805 -0.01258081788)
(9.53146648 0.137700791 -0.01031362936)
(9.749670829 0.0828819185 -0.007343686152)
(9.87593387 0.04561403251 -0.004631931613)
(9.942897306 0.0230351264 -0.00262096063)
(9.975556768 0.01071035051 -0.001342637523)
(9.990252396 0.004599819948 -0.0006270695072)
(9.996371884 0.001830399284 -0.0002685554203)
(9.998737129 0.0006768730986 -0.0001059850562)
(9.999588086 0.000233271509 -3.870936337e-05)
(9.999873843 7.512708341e-05 -1.313472489e-05)
(9.999963645 2.267002779e-05 -4.15509535e-06)
(9.999990123 6.425743422e-06 -1.229407603e-06)
(9.999997465 1.714991701e-06 -3.41243635e-07)
(9.999999384 4.319935907e-07 -8.910453984e-08)
(9.999999858 1.029289746e-07 -2.194519925e-08)
(9.999999969 2.32472632e-08 -5.110400515e-09)
(9.999999994 4.98735443e-09 -1.127864553e-09)
(9.999999999 1.018328147e-09 -2.364311334e-10)
(10 1.982588154e-10 -4.717332464e-11)
(10 3.686848089e-11 -8.977247413e-12)
(10 6.558239295e-12 -1.631132754e-12)
(10 1.121083114e-12 -2.852998284e-13)
(10 1.802342211e-13 -4.68923908e-14)
(10 3.037773907e-14 -7.311636344e-15)
(10 6.150174864e-15 -1.77764249e-15)
(10 -5.52231925e-16 3.438390339e-16)
(10 -1.365418418e-18 -2.146896794e-16)
(10 1.177044931e-16 -3.01440334e-17)
(10 -2.967017272e-16 3.46588989e-16)
(10 -7.201331992e-17 1.350462378e-16)
(10 7.264459827e-17 -1.861742616e-16)
(10 1.267724003e-16 6.4682382e-16)
(10 -1.972257372e-16 2.142824617e-16)
(10 6.502845431e-16 1.302696961e-16)
(10 -5.37164981e-16 -8.040096587e-18)
(10 2.540509203e-16 -4.667378221e-16)
(10 -2.395601147e-16 -5.346488232e-16)
(10 5.20387998e-16 -4.823453564e-16)
(10 -4.713910549e-16 1.951387929e-17)
(10 1.088782863e-16 1.240032764e-16)
(10 2.193017171e-16 -5.017371722e-17)
(10 5.731311708e-16 -5.551179857e-16)
(10 2.164696947e-16 -2.144980228e-16)
(10 -2.370404763e-16 -5.546834155e-16)
(10 -6.757061128e-17 3.285714961e-16)
(10 1.09551499e-16 1.371438059e-16)
(10 1.067580277e-16 2.084469585e-17)
(10 -4.97753361e-16 1.148264941e-16)
(10 -1.27956181e-16 3.162910972e-16)
(10 -3.242408078e-16 -7.907783793e-17)
(10 1.619731036e-16 -6.879954833e-16)
(10 -2.106911162e-15 3.828810693e-15)
)
;

boundaryField
{
    left
    {
        type            dirichlet;
        value           uniform (4 0 0);
    }
    right
    {
        type            dirichlet;
        value           uniform (4 0 0);
    }
    sides
    {
        type            empty;
    }
}


// ************************************************************************* //
