/*--------------------------------*- C++ -*----------------------------------*\
| =========                 |                                                 |
| \\      /  F ield         | foam-extend: Open Source CFD                    |
|  \\    /   O peration     | Version:     4.1                                |
|   \\  /    A nd           | Web:         http://www.foam-extend.org         |
|    \\/     M anipulation  |                                                 |
\*---------------------------------------------------------------------------*/
FoamFile
{
    version     2.0;
    format      ascii;
    class       cellScalarField;
    location    "1.2";
    object      T;
}
// * * * * * * * * * * * * * * * * * * * * * * * * * * * * * * * * * * * * * //

dimensions      [0 0 0 0 1 0 0];

internalField   nonuniform 10((3.998720045 -0.001713899034 0.03495587792) (4.648285829 0.8973370663 0.2632919595) (7.474774168 1.574488176 -0.1545726336) (9.527248845 0.4719311643 -0.1246751359) (9.954296843 0.05399145018 -0.01771905607) (9.996859246 0.004044309637 -0.001463186658) (9.999824034 0.0002389150169 -9.147216444e-05) (9.999991389 1.212375255e-05 -4.820636144e-06) (9.999999617 5.535436988e-07 -2.262568204e-07) (9.999999984 2.338421733e-08 -9.764712727e-09));

boundaryField
{
    left
    {
        type            dirichlet;
        value           uniform (4 0 0);
    }
    right
    {
        type            dirichlet;
        value           uniform (4 0 0);
    }
    sides
    {
        type            empty;
    }
}


// ************************************************************************* //
