/*--------------------------------*- C++ -*----------------------------------*\
| =========                 |                                                 |
| \\      /  F ield         | foam-extend: Open Source CFD                    |
|  \\    /   O peration     | Version:     4.1                                |
|   \\  /    A nd           | Web:         http://www.foam-extend.org         |
|    \\/     M anipulation  |                                                 |
\*---------------------------------------------------------------------------*/
FoamFile
{
    version     2.0;
    format      ascii;
    class       cellScalarField;
    location    "2.4";
    object      T;
}
// * * * * * * * * * * * * * * * * * * * * * * * * * * * * * * * * * * * * * //

dimensions      [0 0 0 0 1 0 0];

internalField   nonuniform 
100
(
(4.00004084 0.0001019887913 6.63941508e-05)
(4.000467024 -0.000687639678 -0.0002627884832)
(4.025571645 0.0487300862 0.04295458773)
(4.562547757 0.5807396562 0.1367520087)
(6.429387866 1.194805651 0.004961486552)
(8.581129036 0.8430555372 -0.1096141805)
(9.661000796 0.2743952741 -0.05882400785)
(9.946630999 0.0515145687 -0.01379048817)
(9.993837836 0.006631198977 -0.002008095121)
(9.99943331 0.0006560216114 -0.0002148719831)
(9.999956069 5.359392667e-05 -1.854005558e-05)
(9.999997015 3.78841487e-06 -1.364770731e-06)
(9.999999817 2.391635506e-07 -8.891337537e-08)
(9.99999999 1.378911115e-08 -5.257640175e-09)
(9.999999999 7.380314337e-10 -2.873366124e-10)
(10 3.712228445e-11 -1.47097324e-11)
(10 1.771445146e-12 -7.124149816e-13)
(10 8.174340627e-14 -3.395638515e-14)
(10 9.272074637e-16 -7.139878852e-16)
(10 4.897189794e-16 1.193545292e-16)
(10 -5.025309789e-16 -6.966173445e-16)
(10 1.856664625e-15 -1.633486347e-16)
(10 -1.238547606e-15 -1.457599398e-16)
(10 9.631207463e-16 -8.972225989e-16)
(10 -4.886635759e-17 3.71205607e-16)
(10 -5.098472934e-17 -4.857831784e-18)
(10 3.232158849e-16 3.503014989e-16)
(10 -4.602029668e-16 -7.639664042e-17)
(10 2.618806355e-16 2.949240372e-17)
(10 -1.36586519e-16 -1.744219529e-17)
(10 2.18836448e-16 -5.564608187e-16)
(10 1.000862123e-15 -5.078880215e-16)
(10 -1.354184949e-16 7.67388769e-17)
(10 -4.236895985e-18 2.400961845e-18)
(10 -1.325615649e-19 7.511991339e-20)
(10 -4.147510004e-21 2.350308648e-21)
(10 -1.297649078e-22 7.353510533e-23)
(10 -4.060009807e-24 2.300724085e-24)
(10 -1.270272519e-25 7.198373199e-26)
(10 -3.974355596e-27 2.252185604e-27)
(10 -1.243473517e-28 7.046508764e-29)
(10 -3.8905084e-30 2.20467112e-30)
(10 -1.217239879e-31 6.89784812e-32)
(10 -3.808430057e-33 2.158159007e-33)
(10 -1.19155966e-34 6.752323585e-35)
(10 -3.728083183e-36 2.112628077e-36)
(10 -1.166421153e-37 6.60986879e-38)
(10 -3.649431064e-39 2.068057518e-39)
(10 -1.141812825e-40 6.470418344e-41)
(10 -3.572437391e-42 2.02442673e-42)
(10 -1.117723204e-43 6.333907135e-44)
(10 -3.497065761e-45 1.981715042e-45)
(10 -1.094140683e-46 6.200269217e-47)
(10 -3.423278978e-48 1.939901313e-48)
(10 -1.071053294e-49 6.069436551e-50)
(10 -3.351038457e-51 1.898963612e-51)
(10 -1.048448618e-52 5.941338612e-53)
(10 -3.280304533e-54 1.858879459e-54)
(10 -1.026314201e-55 5.815905071e-56)
(10 -3.211039341e-57 1.819627596e-57)
(10 -1.004639177e-58 5.693075577e-59)
(10 -3.143215003e-60 1.781192886e-60)
(10 -9.834181321e-62 5.572822711e-62)
(10 -3.076831018e-63 1.743576563e-63)
(10 -9.626586104e-65 5.455196015e-65)
(10 -3.011945519e-66 1.706814506e-66)
(10 -9.42393748e-68 5.340395557e-68)
(10 -2.948724971e-69 1.671006062e-69)
(10 -9.227013182e-71 5.228882085e-71)
(10 -2.887515384e-72 1.636355131e-72)
(10 -9.037297427e-74 5.12152661e-74)
(10 -2.828935118e-75 1.60322337e-75)
(10 -8.857304225e-77 5.019795275e-77)
(10 -2.773984802e-78 1.572192868e-78)
(10 -8.690941589e-80 4.925956336e-80)
(10 -2.72416464e-81 1.544132574e-81)
(10 -8.543877314e-83 4.843286482e-83)
(10 -2.681584135e-84 1.520259882e-84)
(10 -8.423852194e-86 4.776245446e-86)
(10 -2.649045435e-87 1.502186628e-87)
(10 -8.340877663e-89 4.730583097e-89)
(10 -2.63007994e-90 1.491937977e-90)
(10 -8.307254688e-92 4.713343422e-92)
(10 -2.628919416e-93 1.491933696e-93)
(10 -8.337361054e-95 4.732735938e-95)
(10 -2.650387721e-96 1.504924139e-96)
(10 -8.447174373e-98 4.797856856e-98)
(10 -2.699707033e-99 1.533877768e-99)
(10 -8.653526358e-101 4.918258395e-101)
(10 -2.782222184e-102 1.581822573e-102)
(10 -8.973116157e-104 5.103383022e-104)
(10 -2.903057046e-105 1.651649597e-105)
(10 -9.421342454e-107 5.361897357e-107)
(10 -3.066726399e-108 1.745892095e-108)
(10 -1.001104102e-109 5.700975535e-110)
(10 -3.276733956e-111 1.866497884e-111)
(10 -1.075123241e-112 6.125591712e-113)
(10 -3.535191195e-114 2.014614564e-114)
(10 -1.164599133e-115 6.637884855e-116)
(10 -3.761147247e-16 3.200439552e-15)
)
;

boundaryField
{
    left
    {
        type            dirichlet;
        value           uniform (4 0 0);
    }
    right
    {
        type            dirichlet;
        value           uniform (4 0 0);
    }
    sides
    {
        type            empty;
    }
}


// ************************************************************************* //
