/*--------------------------------*- C++ -*----------------------------------*\
| =========                 |                                                 |
| \\      /  F ield         | foam-extend: Open Source CFD                    |
|  \\    /   O peration     | Version:     4.1                                |
|   \\  /    A nd           | Web:         http://www.foam-extend.org         |
|    \\/     M anipulation  |                                                 |
\*---------------------------------------------------------------------------*/
FoamFile
{
    version     2.0;
    format      ascii;
    class       cellScalarField;
    location    "6.2";
    object      T;
}
// * * * * * * * * * * * * * * * * * * * * * * * * * * * * * * * * * * * * * //

dimensions      [0 0 0 0 1 0 0];

internalField   nonuniform 
100
(
(4 -2.122375919e-13 2.486045859e-13)
(4 1.80647484e-11 -1.190563623e-11)
(4 -3.800393659e-10 5.414283726e-10)
(4.000000016 2.425567779e-08 2.747685288e-09)
(4.000000075 -2.000917595e-08 1.773790961e-07)
(4.00000669 1.041849065e-05 6.303191601e-06)
(4.000108683 0.0001048360801 5.217587556e-05)
(4.001440635 0.001731941579 0.001207950571)
(4.021262561 0.02376089276 0.01021408861)
(4.16339205 0.1368916556 0.03430986368)
(4.682310336 0.3999447208 0.05239754432)
(5.778652401 0.68222256 0.0295307874)
(7.243989247 0.7436714465 -0.01853014792)
(8.5643684 0.5524969318 -0.04404822215)
(9.407116092 0.2942960104 -0.03666540854)
(9.804210665 0.1172994975 -0.01896607541)
(9.947447095 0.03631382932 -0.006993473956)
(9.988308625 0.00902423747 -0.001971475526)
(9.99780078 0.001852897601 -0.0004452261185)
(9.999643525 0.0003223010683 -8.341958248e-05)
(9.999949346 4.852347595e-05 -1.332962391e-05)
(9.999993594 6.439252666e-06 -1.857233155e-06)
(9.999999269 7.649126184e-07 -2.297627399e-07)
(9.999999924 8.240407906e-08 -2.561777415e-08)
(9.999999993 8.14046456e-09 -2.606404478e-09)
(9.999999999 7.443855742e-10 -2.445114308e-10)
(10 6.351206731e-11 -2.133434619e-11)
(10 5.096258565e-12 -1.745210885e-12)
(10 3.850791983e-13 -1.353088508e-13)
(10 2.778883172e-14 -1.039820296e-14)
(10 2.21661698e-17 -2.574072078e-16)
(10 9.347325335e-16 -1.955448119e-16)
(10 -1.027666983e-15 3.651031323e-16)
(10 7.238962142e-16 5.764964588e-16)
(10 -1.400960455e-15 4.083598634e-16)
(10 1.051970408e-15 6.907009621e-17)
(10 -8.827093492e-16 6.925029443e-16)
(10 -4.66929649e-16 3.621925116e-16)
(10 -2.455863094e-16 -1.845410581e-16)
(10 -3.927353594e-16 -6.826629056e-17)
(10 8.893945425e-17 -4.832933124e-16)
(10 -4.626312233e-16 1.244201205e-16)
(10 -3.728166151e-16 -2.61659025e-16)
(10 2.135527441e-16 -7.414163678e-17)
(10 -2.886204339e-16 4.593417626e-16)
(10 -7.33326934e-17 -1.162673739e-16)
(10 1.074719581e-17 -3.08196547e-16)
(10 -1.094954403e-16 1.724036369e-16)
(10 -3.152713041e-16 -3.063122904e-16)
(10 -3.405254373e-16 -2.392137904e-16)
(10 2.895189941e-16 4.494675934e-16)
(10 -4.88472493e-16 4.162309366e-16)
(10 -3.416005081e-17 -2.017949337e-17)
(10 -1.211978972e-16 7.451010497e-17)
(10 -2.0783034e-16 3.386079116e-16)
(10 -3.460344677e-16 -5.48222837e-17)
(10 -4.077308312e-16 -3.072755195e-17)
(10 5.943933883e-16 -4.712290685e-16)
(10 -6.475134384e-18 1.05236753e-16)
(10 -1.593671191e-16 -5.750183036e-16)
(10 3.610322661e-16 -1.397187613e-16)
(10 -5.959907549e-17 -9.052737729e-17)
(10 3.634839453e-16 -1.278542971e-16)
(10 -1.675796112e-16 -3.525298529e-17)
(10 3.711401597e-16 3.213878139e-16)
(10 -4.577580063e-16 -7.78076163e-17)
(10 2.61971127e-16 2.944102588e-17)
(10 -1.365836193e-16 -1.744382481e-17)
(10 2.188365319e-16 -5.564608655e-16)
(10 1.000862126e-15 -5.078880228e-16)
(10 -1.354184948e-16 7.673887687e-17)
(10 -4.236895983e-18 2.400961845e-18)
(10 -1.325615648e-19 7.511991335e-20)
(10 -4.147510002e-21 2.350308647e-21)
(10 -1.297649077e-22 7.353510526e-23)
(10 -4.060009803e-24 2.300724083e-24)
(10 -1.270272518e-25 7.198373196e-26)
(10 -3.974355601e-27 2.252185608e-27)
(10 -1.243473524e-28 7.046508807e-29)
(10 -3.890508449e-30 2.204671151e-30)
(10 -1.217239909e-31 6.897848307e-32)
(10 -3.808430225e-33 2.158159109e-33)
(10 -1.191559747e-34 6.752324105e-35)
(10 -3.728083609e-36 2.112628334e-36)
(10 -1.16642136e-37 6.609870033e-38)
(10 -3.649432069e-39 2.068058123e-39)
(10 -1.141813318e-40 6.470421321e-41)
(10 -3.572439844e-42 2.024428212e-42)
(10 -1.117724433e-43 6.333914564e-44)
(10 -3.497071927e-45 1.981718763e-45)
(10 -1.094143753e-46 6.200287697e-47)
(10 -3.42329405e-48 1.939910357e-48)
(10 -1.071060555e-49 6.069479961e-50)
(10 -3.351072669e-51 1.898983985e-51)
(10 -1.048464345e-52 5.941431881e-53)
(10 -3.280374945e-54 1.858921038e-54)
(10 -1.026344847e-55 5.816085238e-56)
(10 -3.211168734e-57 1.819703301e-57)
(10 -1.004692006e-58 5.693383038e-59)
(10 -1.185271471e-16 3.345227686e-15)
)
;

boundaryField
{
    left
    {
        type            dirichlet;
        value           uniform (4 0 0);
    }
    right
    {
        type            dirichlet;
        value           uniform (4 0 0);
    }
    sides
    {
        type            empty;
    }
}


// ************************************************************************* //
