/*--------------------------------*- C++ -*----------------------------------*\
| =========                 |                                                 |
| \\      /  F ield         | foam-extend: Open Source CFD                    |
|  \\    /   O peration     | Version:     4.1                                |
|   \\  /    A nd           | Web:         http://www.foam-extend.org         |
|    \\/     M anipulation  |                                                 |
\*---------------------------------------------------------------------------*/
FoamFile
{
    version     2.0;
    format      ascii;
    class       cellScalarField;
    location    "5.7";
    object      T;
}
// * * * * * * * * * * * * * * * * * * * * * * * * * * * * * * * * * * * * * //

dimensions      [0 0 0 0 1 0 0];

internalField   nonuniform 
100
(
(4 5.463267672e-12 2.802388512e-12)
(4 -2.694964008e-10 -1.075643585e-10)
(4.000000004 1.135903968e-08 7.101385441e-09)
(4.000000056 -4.028451134e-08 -3.75999081e-08)
(4.000002152 4.184683638e-06 4.088409156e-06)
(4.000067109 7.144214983e-05 2.551120689e-05)
(4.000759411 0.0008418729453 0.0006874768987)
(4.013628357 0.0165610767 0.008382657706)
(4.13055725 0.1194845772 0.03389584499)
(4.620027598 0.3921026019 0.05692040681)
(5.730413481 0.7044323997 0.03337430695)
(7.253586165 0.7741707797 -0.02083774357)
(8.615585448 0.5615958018 -0.04807828355)
(9.456140377 0.2851916395 -0.03791239837)
(9.831549455 0.1064996563 -0.01826642061)
(9.958030794 0.03052346232 -0.006202141852)
(9.991392592 0.006970029529 -0.001598790983)
(9.998513197 0.001309764228 -0.0003290219957)
(9.999779061 0.0002081923638 -5.612206992e-05)
(9.99997122 2.864855801e-05 -8.169738308e-06)
(9.99999666 3.479372116e-06 -1.038820501e-06)
(9.99999965 3.79011432e-07 -1.17561294e-07)
(9.999999966 3.753113541e-08 -1.202280032e-08)
(9.999999997 3.416689082e-09 -1.125162857e-09)
(10 2.886724789e-10 -9.736979592e-11)
(10 2.281475934e-11 -7.857686024e-12)
(10 1.701349047e-12 -5.964383931e-13)
(10 1.185570397e-13 -4.227721605e-14)
(10 7.151126248e-15 -3.570089474e-15)
(10 8.984376254e-16 -2.62286342e-16)
(10 -2.89490766e-16 -4.834493755e-16)
(10 1.576110986e-15 -2.612173545e-16)
(10 -1.283959393e-15 5.805521228e-16)
(10 9.132494706e-17 4.436981982e-16)
(10 3.186999522e-16 -2.216641457e-16)
(10 -3.781064309e-16 -3.903646581e-16)
(10 -1.570860254e-17 -2.407979455e-16)
(10 -1.361522824e-17 -2.08519896e-16)
(10 -2.984366606e-17 -1.005671023e-17)
(10 -2.064250607e-16 6.420285122e-16)
(10 1.615809636e-16 -3.048727492e-16)
(10 -2.266359036e-16 -1.675150448e-16)
(10 4.391895196e-16 -1.068337961e-16)
(10 -1.752987836e-16 2.29404295e-16)
(10 -2.528343123e-16 -1.505052628e-16)
(10 -2.922507934e-16 -7.7761011e-17)
(10 1.808591806e-16 3.070172163e-16)
(10 -2.493189893e-16 3.164088041e-16)
(10 -1.918092503e-16 5.745622767e-16)
(10 -1.639458028e-16 1.420049573e-16)
(10 -1.300682109e-16 2.757501344e-16)
(10 -2.409990997e-16 1.553484204e-17)
(10 -3.093905255e-16 6.489192761e-17)
(10 3.124138406e-16 -3.661027567e-16)
(10 3.185463172e-17 4.968406569e-17)
(10 -1.456091117e-16 -3.763257675e-16)
(10 4.130560516e-17 4.553089121e-16)
(10 -1.080810088e-16 -2.660973724e-18)
(10 4.231710706e-16 5.910967819e-16)
(10 -2.706746476e-16 1.292976294e-16)
(10 2.353702228e-16 1.995407413e-16)
(10 -2.666489959e-16 -2.68807183e-17)
(10 1.364853921e-16 1.749757891e-17)
(10 -2.188385902e-16 5.564619917e-16)
(10 -1.000862169e-15 5.078880463e-16)
(10 1.354184939e-16 -7.673887637e-17)
(10 4.236895964e-18 -2.400961834e-18)
(10 1.325615644e-19 -7.511991314e-20)
(10 4.147509994e-21 -2.350308642e-21)
(10 1.297649075e-22 -7.353510517e-23)
(10 4.060009799e-24 -2.300724081e-24)
(10 1.270272517e-25 -7.198373192e-26)
(10 3.974355599e-27 -2.252185607e-27)
(10 1.243473524e-28 -7.046508805e-29)
(10 3.890508449e-30 -2.204671151e-30)
(10 1.217239909e-31 -6.897848307e-32)
(10 3.808430225e-33 -2.158159109e-33)
(10 1.191559747e-34 -6.752324105e-35)
(10 3.728083609e-36 -2.112628333e-36)
(10 1.16642136e-37 -6.609870033e-38)
(10 3.649432069e-39 -2.068058123e-39)
(10 1.141813318e-40 -6.470421321e-41)
(10 3.572439844e-42 -2.024428212e-42)
(10 1.117724433e-43 -6.333914564e-44)
(10 3.497071927e-45 -1.981718763e-45)
(10 1.094143753e-46 -6.200287697e-47)
(10 3.42329405e-48 -1.939910357e-48)
(10 1.071060555e-49 -6.069479961e-50)
(10 3.351072669e-51 -1.898983985e-51)
(10 1.048464345e-52 -5.941431881e-53)
(10 3.280374945e-54 -1.858921038e-54)
(10 1.026344847e-55 -5.816085238e-56)
(10 3.211168734e-57 -1.819703301e-57)
(10 1.004692006e-58 -5.693383038e-59)
(10 3.143422569e-60 -1.781312942e-60)
(10 9.834959756e-62 -5.573269491e-62)
(10 3.077105648e-63 -1.743732507e-63)
(10 9.627471188e-65 -5.455689985e-65)
(10 3.012187818e-66 -1.706944907e-66)
(10 -5.128435366e-16 2.533608707e-15)
)
;

boundaryField
{
    left
    {
        type            dirichlet;
        value           uniform (4 0 0);
    }
    right
    {
        type            dirichlet;
        value           uniform (4 0 0);
    }
    sides
    {
        type            empty;
    }
}


// ************************************************************************* //
