/*--------------------------------*- C++ -*----------------------------------*\
| =========                 |                                                 |
| \\      /  F ield         | foam-extend: Open Source CFD                    |
|  \\    /   O peration     | Version:     4.1                                |
|   \\  /    A nd           | Web:         http://www.foam-extend.org         |
|    \\/     M anipulation  |                                                 |
\*---------------------------------------------------------------------------*/
FoamFile
{
    version     2.0;
    format      ascii;
    class       cellScalarField;
    location    "35";
    object      T;
}
// * * * * * * * * * * * * * * * * * * * * * * * * * * * * * * * * * * * * * //

dimensions      [0 0 0 0 1 0 0];

internalField   nonuniform 
100
(
(4 -5.703630593e-17 1.624202108e-17)
(4 -6.572721013e-17 5.072267888e-17)
(4 -2.488093491e-17 1.497141682e-17)
(4 1.86017302e-17 -1.572595052e-16)
(4 4.808934791e-17 -1.211801801e-16)
(4 -4.023004553e-16 2.983980217e-16)
(4 2.611591767e-16 -1.375802372e-18)
(4 -2.523483594e-16 -1.59005056e-16)
(4 8.663293377e-16 1.098246288e-16)
(4 -1.171571613e-15 7.835336419e-17)
(4 -7.669025802e-17 -3.203809358e-18)
(4 7.899578204e-17 -1.311307867e-16)
(4 8.316002897e-16 8.479144535e-17)
(4 -2.534751515e-16 1.937639347e-16)
(4 5.722845611e-17 -1.98937012e-16)
(4 -3.392694425e-16 -1.613579142e-16)
(4 8.847775206e-16 -5.65050366e-17)
(4 -8.143082569e-16 -1.079571138e-16)
(4 7.401820533e-16 -1.894222334e-17)
(4 -8.711810666e-16 -1.080081857e-16)
(4 1.135692079e-15 -8.590036292e-17)
(4 -9.428216606e-16 5.788044332e-17)
(4 5.380784293e-16 -3.157563764e-16)
(4 -1.199682283e-16 2.443541914e-16)
(4 1.007854486e-17 -9.18462658e-17)
(4 6.473308767e-17 1.361614737e-16)
(4 -2.172330592e-16 1.367908577e-17)
(4 -4.698551476e-17 -4.777407325e-17)
(4 -3.281745568e-16 -1.227651937e-16)
(4 4.141297275e-16 -1.196518764e-17)
(4 8.012420031e-17 -1.44786714e-16)
(4 -4.239944903e-17 -2.587803143e-17)
(4 1.622454138e-16 -8.129160534e-17)
(4 -5.980797313e-16 7.679128715e-17)
(4 1.02220827e-15 7.279677855e-17)
(4 -1.032769376e-15 -2.467187019e-17)
(4 5.614735919e-16 -1.269818566e-16)
(4 -3.937714482e-16 3.422783354e-16)
(4 2.827967449e-16 5.078570216e-17)
(4 7.955976258e-17 2.630962612e-16)
(4 -8.869686662e-17 -1.860734559e-17)
(4 1.270058133e-16 -2.32413714e-17)
(4 5.205879008e-16 5.926717383e-16)
(4 1.171813007e-14 6.964778418e-15)
(4 1.395789092e-13 6.674205059e-14)
(4 1.29666243e-12 6.013288488e-13)
(4 1.13421856e-11 5.049356763e-12)
(4 9.21217281e-11 3.92547828e-11)
(4.000000001 6.92336674e-10 2.809812003e-10)
(4.000000005 4.787763352e-09 1.840271096e-09)
(4.000000035 3.028770454e-08 1.095467415e-08)
(4.000000211 1.742138619e-07 5.887709219e-08)
(4.000001152 9.061211521e-07 2.841161374e-07)
(4.000005705 4.243863647e-06 1.226217944e-06)
(4.000025525 1.785426967e-05 4.723731137e-06)
(4.000103113 6.742115953e-05 1.623529383e-05)
(4.000376225 0.0002286636365 4.981986052e-05)
(4.001241784 0.0006976855666 0.0001366866823)
(4.00371652 0.001919508559 0.0003358777613)
(4.010115464 0.004774917912 0.0007404819284)
(4.025119921 0.01077088408 0.001466720643)
(4.057116235 0.02209727307 0.0026124711)
(4.119344729 0.04135341418 0.004183984506)
(4.230035311 0.07079809915 0.006015544566)
(4.410607482 0.1111930538 0.007732663805)
(4.681472138 0.1606341253 0.00881029411)
(5.056022192 0.2139972641 0.008737392859)
(5.534618402 0.2635380813 0.007232323974)
(6.101025446 0.3007101139 0.004403942152)
(6.723240493 0.3186250303 0.0007634821862)
(7.359031414 0.3141612961 -0.002934043781)
(7.964538775 0.2888280412 -0.005948003359)
(8.50304157 0.2480705417 -0.007788434875)
(8.951082481 0.1994163551 -0.008330300312)
(9.300443618 0.1503019847 -0.00777812602)
(9.556181766 0.1063962249 -0.006527198425)
(9.73221321 0.07085285459 -0.005001352152)
(9.846328459 0.04445750788 -0.003533847541)
(9.916106312 0.0263240845 -0.002318262959)
(9.956410704 0.01473072169 -0.001419125825)
(9.978433292 0.007801523327 -0.0008138371027)
(9.989832306 0.003915819289 -0.0004386482749)
(9.995429022 0.001865259237 -0.0002228164526)
(9.998038983 0.0008443020551 -0.0001069216113)
(9.999196484 0.000363623122 -4.857268501e-05)
(9.999685286 0.0001491893964 -2.092956568e-05)
(9.99988207 5.838222618e-05 -8.569070001e-06)
(9.999957685 2.181670494e-05 -3.339031513e-06)
(9.999985448 7.793988431e-06 -1.240173803e-06)
(9.999995199 2.664869096e-06 -4.39686193e-07)
(9.99999848 8.729884943e-07 -1.490016601e-07)
(9.999999537 2.742941842e-07 -4.8326818e-08)
(9.999999865 8.274604838e-08 -1.501997672e-08)
(9.999999962 2.399033345e-08 -4.478646268e-09)
(9.99999999 6.691267875e-09 -1.282662561e-09)
(9.999999997 1.797116883e-09 -3.532148315e-10)
(9.999999999 4.652025757e-10 -9.362103435e-11)
(10 1.161747983e-10 -2.391080814e-11)
(10 2.800834148e-11 -5.889154444e-12)
(10 6.526533395e-12 -1.395679839e-12)
)
;

boundaryField
{
    left
    {
        type            dirichlet;
        value           uniform (4 0 0);
    }
    right
    {
        type            dirichlet;
        value           uniform (4 0 0);
    }
    sides
    {
        type            empty;
    }
}


// ************************************************************************* //
