/*--------------------------------*- C++ -*----------------------------------*\
| =========                 |                                                 |
| \\      /  F ield         | foam-extend: Open Source CFD                    |
|  \\    /   O peration     | Version:     4.1                                |
|   \\  /    A nd           | Web:         http://www.foam-extend.org         |
|    \\/     M anipulation  |                                                 |
\*---------------------------------------------------------------------------*/
FoamFile
{
    version     2.0;
    format      ascii;
    class       cellScalarField;
    location    "6";
    object      T;
}
// * * * * * * * * * * * * * * * * * * * * * * * * * * * * * * * * * * * * * //

dimensions      [0 0 0 0 1 0 0];

internalField   nonuniform 10((4 2.758126862e-13 1.053493698e-12) (4 -5.492696561e-12 -5.3015121e-11) (4 6.901254626e-10 2.220141774e-09) (4.000000035 3.329446163e-08 -1.198428761e-08) (4.000000217 2.964537537e-07 8.180559599e-07) (4.00001852 2.526019372e-05 1.146362973e-05) (4.000227792 0.0002151252401 0.0001422877039) (4.003568322 0.004456524324 0.002800679011) (4.04585127 0.0478439189 0.01760252543) (4.290236406 0.219323341 0.04530860707));

boundaryField
{
    left
    {
        type            dirichlet;
        value           uniform (4 0 0);
    }
    right
    {
        type            dirichlet;
        value           uniform (4 0 0);
    }
    sides
    {
        type            empty;
    }
}


// ************************************************************************* //
