/*--------------------------------*- C++ -*----------------------------------*\
| =========                 |                                                 |
| \\      /  F ield         | foam-extend: Open Source CFD                    |
|  \\    /   O peration     | Version:     4.1                                |
|   \\  /    A nd           | Web:         http://www.foam-extend.org         |
|    \\/     M anipulation  |                                                 |
\*---------------------------------------------------------------------------*/
FoamFile
{
    version     2.0;
    format      ascii;
    class       cellScalarField;
    location    "38.3";
    object      T;
}
// * * * * * * * * * * * * * * * * * * * * * * * * * * * * * * * * * * * * * //

dimensions      [0 0 0 0 1 0 0];

internalField   nonuniform 
100
(
(4 -5.703630593e-17 1.624202108e-17)
(4 -3.560834874e-17 1.063952033e-16)
(4 -2.159291927e-16 2.977919987e-17)
(4 2.059805122e-16 -2.314746043e-16)
(4 2.847971062e-17 -3.781957912e-17)
(4 -3.527914994e-16 1.964363478e-16)
(4 3.841896725e-16 1.518487427e-16)
(4 -3.072017401e-16 1.247669397e-16)
(4 6.50696122e-16 1.795783826e-16)
(4 -1.270082926e-15 -1.414189187e-16)
(4 9.744049445e-17 -2.262612348e-17)
(4 3.942987956e-16 -9.622257747e-17)
(4 7.50252504e-16 1.791784888e-16)
(4 -8.352489587e-16 2.353919688e-16)
(4 4.459651386e-16 -1.684775634e-16)
(4 -5.710915136e-16 8.920386494e-17)
(4 5.07951828e-16 -1.272138312e-16)
(4 -2.856656884e-16 -9.313893574e-18)
(4 1.124783535e-17 -1.670838868e-16)
(4 2.399651894e-17 -9.086103511e-17)
(4 9.839065566e-17 -1.398381176e-16)
(4 -1.681095299e-16 -1.173569184e-16)
(4 4.072119401e-16 4.012908732e-17)
(4 -9.049796552e-16 -2.103024036e-16)
(4 1.0194958e-15 9.029120175e-17)
(4 -8.0131862e-16 6.480629746e-17)
(4 7.511848453e-16 -1.64106666e-17)
(4 -8.95912138e-16 9.00040559e-17)
(4 4.95062373e-16 -1.767363775e-16)
(4 -4.188933688e-17 -8.483167852e-17)
(4 4.660433659e-16 8.299005347e-17)
(4 -5.052082917e-16 -1.063215285e-16)
(4 9.894891121e-16 -4.482081813e-17)
(4 -1.559774606e-15 -1.361456454e-16)
(4 1.200957142e-15 2.763470611e-16)
(4 -6.662584479e-16 -4.618925347e-16)
(4 7.471620297e-16 1.73770865e-16)
(4 -8.391715191e-16 -9.348690488e-17)
(4 7.675798845e-16 3.168778903e-18)
(4 6.501387856e-17 9.585565881e-17)
(4 -1.637128039e-16 1.38355513e-16)
(4 -1.558012873e-16 -7.704171847e-17)
(4 4.725058936e-17 -1.755109654e-16)
(4 3.176940992e-17 1.495342692e-16)
(4 -5.168501361e-16 8.934297091e-17)
(4 9.018240623e-16 -9.37014213e-17)
(4 -7.655157262e-16 1.964334935e-16)
(4 8.081566222e-16 -1.906209796e-16)
(4 2.620876431e-15 3.01853895e-15)
(4 5.486784447e-14 2.559329379e-14)
(4 4.889908194e-13 2.215881755e-13)
(4 4.084526528e-12 1.771464866e-12)
(4 3.177851511e-11 1.321662091e-11)
(4 2.298277124e-10 9.124177587e-11)
(4.000000002 1.537638981e-09 5.798141471e-10)
(4.000000011 9.470231936e-09 3.373566947e-09)
(4.000000065 5.343585312e-08 1.787913297e-08)
(4.000000352 2.750385038e-07 8.593292185e-08)
(4.000001732 1.287030255e-06 3.733837719e-07)
(4.000007777 5.463885421e-06 1.464001928e-06)
(4.000031809 2.102608157e-05 5.17667069e-06)
(4.00011852 7.335977072e-05 1.651294401e-05)
(4.000402721 0.0002323098672 4.75648885e-05)
(4.001250026 0.0006688322656 0.000123885283)
(4.003552145 0.001754318395 0.0002921895753)
(4.009264571 0.004201889173 0.0006249292109)
(4.022239877 0.009212540181 0.001213428649)
(4.049282347 0.01853451881 0.002140473428)
(4.101118935 0.03430126993 0.003430026901)
(4.192720219 0.05853321982 0.00498735373)
(4.34228494 0.09231283408 0.006560505582)
(4.568423127 0.1348517031 0.007759872448)
(4.885711927 0.1828579673 0.008154224607)
(5.29966766 0.2306343062 0.007421863412)
(5.802840544 0.2711052792 0.005495612543)
(6.373734372 0.2975577015 0.002628922293)
(6.979417264 0.3054951207 -0.0006588331469)
(7.581328524 0.293890578 -0.003741148259)
(8.142547702 0.2653589125 -0.006078905519)
(8.634285264 0.2252364371 -0.007368387291)
(9.039791276 0.1799968467 -0.007589949854)
(9.354974051 0.1356290198 -0.006955875617)
(9.586204431 0.09649829436 -0.005798365348)
(9.746543679 0.06491767374 -0.004452568652)
(9.85176975 0.04134854315 -0.003175612333)
(9.917211292 0.02496726859 -0.002115741617)
(9.95582768 0.01430995093 -0.001322511845)
(9.977474962 0.007794503627 -0.0007782652711)
(9.98901639 0.004039559737 -0.0004323873315)
(9.994875573 0.001994219109 -0.0002273409913)
(9.997711009 0.0009388359559 -0.0001133576845)
(9.999020429 0.0004219458094 -5.370339354e-05)
(9.999598091 0.0001812315755 -2.421376029e-05)
(9.99984179 7.44680331e-05 -1.040648149e-05)
(9.999940204 2.930234024e-05 -4.269225257e-06)
(9.999978284 1.105243835e-05 -1.674092679e-06)
(9.999992417 3.999944699e-06 -6.282651363e-07)
(9.999997452 1.390262385e-06 -2.259217974e-07)
(9.999999175 4.644977841e-07 -7.793247642e-08)
(9.999999743 1.493146611e-07 -2.581637208e-08)
)
;

boundaryField
{
    left
    {
        type            dirichlet;
        value           uniform (4 0 0);
    }
    right
    {
        type            dirichlet;
        value           uniform (4 0 0);
    }
    sides
    {
        type            empty;
    }
}


// ************************************************************************* //
