/*--------------------------------*- C++ -*----------------------------------*\
| =========                 |                                                 |
| \\      /  F ield         | foam-extend: Open Source CFD                    |
|  \\    /   O peration     | Version:     4.1                                |
|   \\  /    A nd           | Web:         http://www.foam-extend.org         |
|    \\/     M anipulation  |                                                 |
\*---------------------------------------------------------------------------*/
FoamFile
{
    version     2.0;
    format      ascii;
    class       cellScalarField;
    location    "1.1";
    object      T;
}
// * * * * * * * * * * * * * * * * * * * * * * * * * * * * * * * * * * * * * //

dimensions      [0 0 0 0 1 0 0];

internalField   nonuniform 10((4.00511245 0.01899926117 0.0703457001) (5.003676396 1.223920199 0.245570658) (8.091929139 1.426921913 -0.2177741303) (9.723211878 0.3007493002 -0.08872230075) (9.977509716 0.02787970494 -0.009637592825) (9.998633472 0.001818978157 -0.0006806741743) (9.999930256 9.718135015e-05 -3.819371537e-05) (9.999996832 4.558296858e-06 -1.852815605e-06) (9.999999868 1.950343133e-07 -8.125481878e-08) (9.999999995 7.792977318e-09 -3.308744103e-09));

boundaryField
{
    left
    {
        type            dirichlet;
        value           uniform (4 0 0);
    }
    right
    {
        type            dirichlet;
        value           uniform (4 0 0);
    }
    sides
    {
        type            empty;
    }
}


// ************************************************************************* //
