/*--------------------------------*- C++ -*----------------------------------*\
| =========                 |                                                 |
| \\      /  F ield         | foam-extend: Open Source CFD                    |
|  \\    /   O peration     | Version:     4.1                                |
|   \\  /    A nd           | Web:         http://www.foam-extend.org         |
|    \\/     M anipulation  |                                                 |
\*---------------------------------------------------------------------------*/
FoamFile
{
    version     2.0;
    format      ascii;
    class       cellScalarField;
    location    "37.8";
    object      T;
}
// * * * * * * * * * * * * * * * * * * * * * * * * * * * * * * * * * * * * * //

dimensions      [0 0 0 0 1 0 0];

internalField   nonuniform 
100
(
(4 -5.703630593e-17 1.624202108e-17)
(4 -3.875773205e-17 -7.319969149e-17)
(4 -2.337295802e-16 -3.714168835e-17)
(4 5.859672219e-17 -2.969131404e-17)
(4 -7.688150868e-17 2.108762636e-16)
(4 -4.80350858e-16 -9.965046921e-17)
(4 5.068216558e-16 -3.955572904e-17)
(4 -3.191003169e-16 1.51320575e-16)
(4 7.257639774e-16 -1.070212137e-16)
(4 -1.413378482e-15 -1.155285064e-16)
(4 2.521479316e-16 1.285052803e-16)
(4 -1.927653964e-16 -1.78808829e-16)
(4 1.056727138e-15 1.660296228e-16)
(4 -4.79251983e-16 1.424001685e-16)
(4 4.543646706e-16 2.432206371e-17)
(4 -9.070847639e-17 1.731244327e-16)
(4 1.868036451e-16 -1.030474384e-16)
(4 -3.718688283e-17 -2.086683204e-17)
(4 7.450064705e-17 1.043443189e-16)
(4 -2.387681355e-16 -3.686304726e-16)
(4 8.336655282e-16 3.272946151e-16)
(4 -8.397989836e-16 1.569256122e-16)
(4 8.149567071e-16 -1.268972528e-16)
(4 -1.023098403e-15 -4.993966146e-17)
(4 5.58219394e-16 1.046196394e-16)
(4 -7.965914263e-16 2.7477511e-16)
(4 4.443389745e-16 -4.002418574e-16)
(4 -3.097325027e-16 -2.372997735e-17)
(4 -2.848199881e-16 2.436998131e-16)
(4 -1.904382759e-16 -1.224228599e-16)
(4 1.075228944e-15 -4.412706364e-17)
(4 -1.104315983e-15 -1.25329497e-17)
(4 9.314533781e-16 -4.442569949e-17)
(4 -1.311611169e-15 -5.523458475e-17)
(4 1.657570563e-15 -1.131354514e-17)
(4 -1.589859986e-15 -3.058745708e-16)
(4 1.217873267e-15 -2.762031515e-16)
(4 -7.506082535e-16 1.127086514e-16)
(4 6.739138932e-16 1.055756234e-17)
(4 -5.674842128e-17 -3.975132435e-18)
(4 -2.390562292e-16 -4.037170599e-17)
(4 -8.025880804e-17 2.273828235e-16)
(4 -8.64676867e-17 -6.19918365e-17)
(4 -2.337721693e-16 7.481835853e-17)
(4 -2.353334129e-16 1.485249401e-16)
(4 5.409720554e-16 1.405700469e-16)
(4 -8.373859713e-16 7.485619848e-17)
(4 2.224697397e-15 1.927560238e-15)
(4 3.639435065e-14 1.753573425e-14)
(4 3.350655984e-13 1.535214485e-13)
(4 2.869831546e-12 1.261349292e-12)
(4 2.284771708e-11 9.637450627e-12)
(4 1.692206521e-10 6.819193123e-11)
(4.000000001 1.159873393e-09 4.443240099e-10)
(4.000000008 7.320857033e-09 2.651566238e-09)
(4.000000051 4.233764325e-08 1.441338381e-08)
(4.000000282 2.232980621e-07 7.102488246e-08)
(4.000001421 1.070069561e-06 3.161380934e-07)
(4.000006526 4.647599603e-06 1.268276724e-06)
(4.000027263 1.827393673e-05 4.581846814e-06)
(4.000103621 6.50479058e-05 1.490837322e-05)
(4.000358631 0.0002098216181 4.372952712e-05)
(4.00113209 0.0006143188973 0.0001157852678)
(4.003266601 0.001635945787 0.0002771533775)
(4.008637932 0.003971875598 0.0006006332931)
(4.020991948 0.008813594435 0.001179906704)
(4.047025383 0.01792005793 0.002102629944)
(4.09741145 0.03346925311 0.003399134102)
(4.187193392 0.05756266419 0.004979544216)
(4.334826613 0.0913816306 0.006591246012)
(4.559359049 0.1342136541 0.00783587045)
(4.875892911 0.1827723427 0.008266794316)
(5.290384104 0.2312681316 0.007546307036)
(5.795550532 0.2724510841 0.005598533839)
(6.369681492 0.2994102552 0.002680813535)
(6.979278798 0.3075050602 -0.0006718527277)
(7.585032358 0.2956744486 -0.003812376393)
(8.149324704 0.2666173438 -0.006185016094)
(8.642922468 0.2258312852 -0.007479617034)
(9.048974683 0.179962478 -0.007681064401)
(9.363593174 0.1351257132 -0.007013095014)
(9.593531411 0.09573815283 -0.005820409879)
(9.752266255 0.0640965133 -0.004447105667)
(9.855913335 0.04060480015 -0.003153953845)
(9.920010185 0.0243717438 -0.002088365786)
(9.957599539 0.01387769409 -0.0012966626)
(9.978530019 0.007505997187 -0.0007575612735)
(9.989609054 0.003860854427 -0.0004176537542)
(9.995190428 0.00189082568 -0.0002178091249)
(9.997869543 0.0008826895683 -0.000107675358)
(9.999096231 0.0003932197586 -5.055410887e-05)
(9.999632568 0.0001673414445 -2.258075729e-05)
(9.999856731 6.8103698e-05 -9.610441982e-06)
(9.999946381 2.653283532e-05 -3.903035416e-06)
(9.999980725 9.90554228e-06 -1.514629875e-06)
(9.999993339 3.547151644e-06 -5.62356493e-07)
(9.999997786 1.219560102e-06 -2.000068892e-07)
(9.999999291 4.029523976e-07 -6.821935469e-08)
(9.999999781 1.280639323e-07 -2.233975906e-08)
(9.999999935 3.918397838e-08 -7.03098798e-09)
)
;

boundaryField
{
    left
    {
        type            dirichlet;
        value           uniform (4 0 0);
    }
    right
    {
        type            dirichlet;
        value           uniform (4 0 0);
    }
    sides
    {
        type            empty;
    }
}


// ************************************************************************* //
