/*--------------------------------*- C++ -*----------------------------------*\
| =========                 |                                                 |
| \\      /  F ield         | foam-extend: Open Source CFD                    |
|  \\    /   O peration     | Version:     4.1                                |
|   \\  /    A nd           | Web:         http://www.foam-extend.org         |
|    \\/     M anipulation  |                                                 |
\*---------------------------------------------------------------------------*/
FoamFile
{
    version     2.0;
    format      ascii;
    class       cellScalarField;
    location    "20.9";
    object      T;
}
// * * * * * * * * * * * * * * * * * * * * * * * * * * * * * * * * * * * * * //

dimensions      [0 0 0 0 1 0 0];

internalField   nonuniform 
100
(
(4 -5.703630593e-17 1.624202108e-17)
(4 1.966956137e-17 1.54797661e-17)
(4 -9.455955479e-17 1.323222886e-16)
(4 -2.438791628e-16 -3.988017029e-17)
(4 1.382271401e-16 -1.549298085e-17)
(4 -5.749545015e-16 3.601072013e-17)
(4 4.373996604e-16 1.169065289e-16)
(4 -3.29769484e-16 2.109100698e-17)
(4 7.113522328e-16 1.36659628e-17)
(4 -1.416136223e-15 -2.570027887e-16)
(4 1.113470857e-16 -2.748496169e-17)
(4 9.895480601e-16 1.53622561e-16)
(4 -4.687931846e-16 -2.576030406e-16)
(4 2.022263532e-16 -2.993780719e-16)
(4 5.063082048e-16 -4.110682381e-17)
(4 -5.158311479e-16 2.629702117e-16)
(4 3.426925836e-16 -1.152816306e-16)
(4 2.166662861e-16 -1.629321366e-16)
(4 1.553057828e-15 3.076445014e-16)
(4 1.698941232e-15 -3.343411124e-16)
(4 9.041169603e-16 1.219205654e-15)
(4 4.233610004e-14 2.714261242e-14)
(4 6.673352377e-13 3.905225816e-13)
(4 9.335365679e-12 5.243083126e-12)
(4 1.183563823e-10 6.370553123e-11)
(4.000000001 1.373880249e-09 7.089723889e-10)
(4.000000014 1.448985856e-08 7.073621911e-09)
(4.000000136 1.366226506e-07 6.26846981e-08)
(4.000001186 1.146737373e-06 4.9091779e-07)
(4.000009179 8.461754448e-06 3.316411331e-06)
(4.000061855 5.351094769e-05 1.873679625e-05)
(4.000355657 0.0002835117922 8.680282393e-05)
(4.001723881 0.001245242094 0.0003277405971)
(4.007027514 0.004533782732 0.001010623087)
(4.024203447 0.01376414465 0.002558203889)
(4.07100722 0.03513813095 0.005341378183)
(4.179217501 0.07611933814 0.009217941274)
(4.393284068 0.1411729003 0.01310082041)
(4.758563965 0.2260254835 0.01509896286)
(5.300269888 0.3148026775 0.01348212462)
(6.003298341 0.3840977384 0.0079265755)
(6.806869967 0.4132018777 1.206228977e-05)
(7.620588107 0.3942510272 -0.007556183746)
(8.354573267 0.3354700512 -0.01244330947)
(8.947316111 0.2558700749 -0.01378411848)
(9.377912866 0.1757686157 -0.01223497979)
(9.660554915 0.1092361531 -0.009218743731)
(9.828897069 0.06167843469 -0.006063163674)
(9.92023955 0.0317676494 -0.003539142542)
(9.965563319 0.01498231943 -0.001854308232)
(9.986204104 0.00649374834 -0.0008794800587)
(9.994861318 0.002595636031 -0.0003801598793)
(9.998216551 0.000959993082 -0.0001506126924)
(9.99942198 0.0003295725905 -5.495939294e-05)
(9.999824661 0.0001053458542 -1.855232054e-05)
(9.999950105 3.144391505e-05 -5.81619615e-06)
(9.999986651 8.788706599e-06 -1.69952709e-06)
(9.999996635 2.306469841e-06 -4.644191428e-07)
(9.999999199 5.697980095e-07 -1.190499159e-07)
(9.99999982 1.32834976e-07 -2.871055777e-08)
(9.999999961 2.929166493e-08 -6.531713638e-09)
(9.999999992 6.123398478e-09 -1.405383928e-09)
(9.999999998 1.216160197e-09 -2.866756598e-10)
(10 2.299535265e-10 -5.556674725e-11)
(10 4.147245078e-11 -1.025510605e-11)
(10 7.148806796e-12 -1.807003056e-12)
(10 1.173627364e-12 -3.033065825e-13)
(10 1.850771567e-13 -4.824339729e-14)
(10 2.964688282e-14 -7.536206246e-15)
(10 5.343089651e-15 -1.939167329e-15)
(10 -7.836783255e-16 -2.652985004e-16)
(10 4.973216532e-16 -6.532315456e-16)
(10 2.644375461e-16 -3.243773766e-16)
(10 3.419672326e-16 5.986729728e-16)
(10 -7.519723488e-17 6.460949115e-16)
(10 8.518426377e-17 6.528371601e-16)
(10 -1.08913319e-16 -2.428751131e-16)
(10 -3.445864139e-16 -7.886129873e-17)
(10 5.569354617e-17 -7.800251203e-16)
(10 9.737173495e-17 -3.939924816e-16)
(10 4.234294524e-16 6.712760605e-17)
(10 -1.283801979e-16 5.204843943e-16)
(10 -2.279622349e-16 1.541534134e-16)
(10 -4.58630386e-17 -2.999034826e-16)
(10 5.200874572e-17 -1.470859365e-17)
(10 3.215563149e-16 -6.639742298e-16)
(10 1.263042336e-16 1.145913638e-16)
(10 2.126546312e-16 2.803894209e-17)
(10 2.772102206e-16 2.24252647e-16)
(10 -2.702601014e-16 1.643257379e-16)
(10 -2.937526039e-16 -3.445888673e-16)
(10 4.205420087e-17 1.034136488e-16)
(10 -1.330845874e-17 6.390926256e-17)
(10 -1.010505819e-16 -1.240150799e-16)
(10 4.000053544e-16 4.959065039e-16)
(10 9.959509739e-19 -5.863219379e-17)
(10 -3.429334228e-16 1.799097727e-16)
(10 -1.913945617e-16 -1.188717195e-16)
(10 5.473575028e-16 -3.347475339e-16)
(10 -4.193488298e-16 3.287210773e-15)
)
;

boundaryField
{
    left
    {
        type            dirichlet;
        value           uniform (4 0 0);
    }
    right
    {
        type            dirichlet;
        value           uniform (4 0 0);
    }
    sides
    {
        type            empty;
    }
}


// ************************************************************************* //
