/*--------------------------------*- C++ -*----------------------------------*\
| =========                 |                                                 |
| \\      /  F ield         | foam-extend: Open Source CFD                    |
|  \\    /   O peration     | Version:     4.1                                |
|   \\  /    A nd           | Web:         http://www.foam-extend.org         |
|    \\/     M anipulation  |                                                 |
\*---------------------------------------------------------------------------*/
FoamFile
{
    version     2.0;
    format      ascii;
    class       cellScalarField;
    location    "3.8";
    object      T;
}
// * * * * * * * * * * * * * * * * * * * * * * * * * * * * * * * * * * * * * //

dimensions      [0 0 0 0 1 0 0];

internalField   nonuniform 10((4.00000004 7.017039074e-08 -9.708996239e-09) (3.999999302 -1.615672033e-06 1.387946337e-06) (4.000057952 9.569557791e-05 3.166921597e-05) (4.000508276 0.0002042025597 0.0003825984104) (4.0149722 0.02260362534 0.01594494898) (4.231428813 0.2366987118 0.06939261263) (5.173313288 0.7207965215 0.07353576907) (6.9272516 0.9602050532 -0.01851500078) (8.614915179 0.6759554633 -0.07099598934) (9.560113291 0.2850361484 -0.04788616772));

boundaryField
{
    left
    {
        type            dirichlet;
        value           uniform (4 0 0);
    }
    right
    {
        type            dirichlet;
        value           uniform (4 0 0);
    }
    sides
    {
        type            empty;
    }
}


// ************************************************************************* //
