/*--------------------------------*- C++ -*----------------------------------*\
| =========                 |                                                 |
| \\      /  F ield         | foam-extend: Open Source CFD                    |
|  \\    /   O peration     | Version:     4.1                                |
|   \\  /    A nd           | Web:         http://www.foam-extend.org         |
|    \\/     M anipulation  |                                                 |
\*---------------------------------------------------------------------------*/
FoamFile
{
    version     2.0;
    format      ascii;
    class       cellScalarField;
    location    "34.5";
    object      T;
}
// * * * * * * * * * * * * * * * * * * * * * * * * * * * * * * * * * * * * * //

dimensions      [0 0 0 0 1 0 0];

internalField   nonuniform 
100
(
(4 -5.703630593e-17 1.624202108e-17)
(4 -1.80583352e-16 -5.89207042e-17)
(4 -3.702960474e-17 -3.466384068e-17)
(4 -1.27223372e-17 -2.725414358e-17)
(4 2.530502387e-17 -5.98755433e-17)
(4 -4.497337787e-16 -3.722960155e-17)
(4 4.407874851e-16 -1.840106353e-17)
(4 -7.563790091e-17 -9.518334825e-17)
(4 4.367984704e-16 1.133665683e-16)
(4 -8.722024619e-16 -1.145421227e-16)
(4 -7.722950334e-17 -4.313766122e-17)
(4 3.577030996e-16 -9.874860529e-17)
(4 4.955493007e-16 9.71075398e-17)
(4 1.726452529e-16 -4.959272968e-16)
(4 7.872532015e-16 1.485328502e-16)
(4 -8.939826439e-16 -6.540798495e-17)
(4 8.46302626e-16 -2.952773876e-17)
(4 -9.384016886e-16 2.469686005e-16)
(4 8.056384123e-16 -2.563908277e-17)
(4 -5.922800846e-16 2.783025465e-16)
(4 1.748666056e-16 9.097010787e-17)
(4 -1.914900128e-16 -1.817195569e-17)
(4 2.08793294e-16 -4.369574931e-17)
(4 -1.239934479e-16 -9.542680526e-17)
(4 6.892936842e-19 2.534646958e-16)
(4 -2.006864136e-16 -2.972548794e-17)
(4 7.708792866e-17 1.178948921e-16)
(4 -8.59904593e-17 4.804992077e-17)
(4 -2.758398191e-16 2.509501456e-16)
(4 3.977503469e-16 -1.207284572e-17)
(4 -1.115658548e-16 1.054326845e-16)
(4 -1.62675578e-16 -1.651451795e-16)
(4 2.932593351e-17 -5.406846089e-17)
(4 -3.898700354e-16 2.18237739e-17)
(4 9.193282491e-16 6.083007867e-17)
(4 -9.475539893e-16 -8.545164731e-17)
(4 5.136330924e-16 -6.122256567e-17)
(4 4.411242735e-17 -1.159033323e-16)
(4 1.3154634e-16 1.783234384e-16)
(4 -1.799123865e-17 2.573073802e-17)
(4 -1.460395205e-16 -5.186262784e-17)
(4 3.828160194e-16 5.293519899e-16)
(4 6.515081642e-15 4.847023976e-15)
(4 9.26710201e-14 4.448790402e-14)
(4 8.749849939e-13 4.109819583e-13)
(4 7.847076421e-12 3.544184437e-12)
(4 6.538155962e-11 2.828309763e-11)
(4.000000001 5.04251705e-10 2.079537203e-10)
(4.000000004 3.580462069e-09 1.399879973e-09)
(4.000000027 2.326804889e-08 8.569445088e-09)
(4.000000164 1.375235771e-07 4.73699352e-08)
(4.000000922 7.348543137e-07 2.349974542e-07)
(4.000004681 3.533276089e-06 1.041580545e-06)
(4.000021466 1.52411925e-05 4.114385335e-06)
(4.000088736 5.891524794e-05 1.447346249e-05)
(4.000330767 0.0002041620863 4.536621639e-05)
(4.001113311 0.0006352258231 0.0001268751166)
(4.003391478 0.001778623686 0.0003171496194)
(4.009378058 0.004494044604 0.0007098591396)
(4.023617674 0.01027740691 0.00142482587)
(4.054365387 0.02133800942 0.00256713433)
(4.114816317 0.04034352735 0.004151841934)
(4.223341616 0.06966871388 0.006018578481)
(4.401753111 0.1102033516 0.00778883236)
(4.671067019 0.1601186279 0.008921803567)
(5.045323242 0.2142502717 0.008883701373)
(5.525313847 0.2646803054 0.007374016926)
(6.094794614 0.3026068137 0.004497572468)
(6.721248875 0.3209071801 0.0007801739472)
(7.361573251 0.3163476735 -0.002996423637)
(7.970977551 0.2904909026 -0.006065513302)
(8.512057485 0.2489671227 -0.007923205454)
(8.961100107 0.1995334739 -0.008446648314)
(9.310056139 0.1498108618 -0.007854367863)
(9.564426935 0.1055561423 -0.006558952775)
(9.738649965 0.0699144769 -0.004997396866)
(9.850952141 0.04360123969 -0.003508711639)
(9.91918502 0.02564243981 -0.002285690455)
(9.95832121 0.01424317942 -0.001388537976)
(9.979542825 0.007483058081 -0.0007897670374)
(9.990437389 0.003723864242 -0.0004219487738)
(9.995739772 0.001757724385 -0.0002123457125)
(9.998189643 0.0007880110381 -0.0001009018911)
(9.999265592 0.0003359730121 -4.536919633e-05)
(9.999715336 0.0001364009644 -1.934079926e-05)
(9.99989448 5.279671808e-05 -7.830962963e-06)
(9.99996256 1.950715955e-05 -3.016496709e-06)
(9.999987272 6.887889788e-06 -1.107160059e-06)
(9.999995851 2.326898907e-06 -3.87767588e-07)
(9.999998702 7.529207509e-07 -1.297735312e-07)
(9.99999961 2.335985757e-07 -4.155514923e-08)
(9.999999887 6.956597304e-08 -1.274771168e-08)
(9.999999969 1.990554049e-08 -3.750849749e-09)
(9.999999992 5.478161792e-09 -1.05978258e-09)
(9.999999998 1.451445877e-09 -2.878554459e-10)
(9.999999999 3.705806405e-10 -7.52425114e-11)
(10 9.126193898e-11 -1.894847488e-11)
(10 2.16946168e-11 -4.600203331e-12)
(10 4.98301682e-12 -1.078681121e-12)
(10 1.105097874e-12 -2.414209054e-13)
)
;

boundaryField
{
    left
    {
        type            dirichlet;
        value           uniform (4 0 0);
    }
    right
    {
        type            dirichlet;
        value           uniform (4 0 0);
    }
    sides
    {
        type            empty;
    }
}


// ************************************************************************* //
