/*--------------------------------*- C++ -*----------------------------------*\
| =========                 |                                                 |
| \\      /  F ield         | foam-extend: Open Source CFD                    |
|  \\    /   O peration     | Version:     4.1                                |
|   \\  /    A nd           | Web:         http://www.foam-extend.org         |
|    \\/     M anipulation  |                                                 |
\*---------------------------------------------------------------------------*/
FoamFile
{
    version     2.0;
    format      ascii;
    class       cellScalarField;
    location    "2";
    object      T;
}
// * * * * * * * * * * * * * * * * * * * * * * * * * * * * * * * * * * * * * //

dimensions      [0 0 0 0 1 0 0];

internalField   nonuniform 
100
(
(4.000363365 0.0004489578974 -0.00021060483)
(4.000911452 0.001341376537 0.01347541941)
(4.255407981 0.3605054502 0.1444328238)
(5.877493226 1.229199734 0.06053003921)
(8.307425884 1.02123806 -0.1272231292)
(9.617916686 0.3258204726 -0.07336016916)
(9.946364035 0.05474107512 -0.01549394181)
(9.994583861 0.006137538681 -0.001955874936)
(9.999564995 0.0005277304264 -0.0001809403618)
(9.999970396 3.768784553e-05 -1.358730455e-05)
(9.999998222 2.347303763e-06 -8.781208584e-07)
(9.999999903 1.31628948e-07 -5.066957919e-08)
(9.999999995 6.792865405e-09 -2.675450131e-09)
(10 3.277039326e-10 -1.315301978e-10)
(10 1.494963943e-11 -6.09671071e-12)
(10 6.500568386e-13 -2.691844892e-13)
(10 2.804994513e-14 -1.148200576e-14)
(10 4.346600099e-17 4.784214686e-16)
(10 -1.001479588e-15 -1.118823254e-16)
(10 1.358269155e-15 8.648065154e-16)
(10 -1.982115432e-15 5.27953284e-16)
(10 3.863985612e-16 -2.432942093e-16)
(10 3.25886156e-16 3.429201573e-16)
(10 -4.570367867e-16 -7.838014644e-17)
(10 2.620980377e-16 2.938141542e-17)
(10 -1.365850584e-16 -1.744165025e-17)
(10 2.188357978e-16 -5.564603864e-16)
(10 1.000862069e-15 -5.078879894e-16)
(10 -1.354184973e-16 7.673887822e-17)
(10 -4.236896033e-18 2.400961864e-18)
(10 -1.325615622e-19 7.511991132e-20)
(10 -4.147509637e-21 2.350308411e-21)
(10 -1.297648815e-22 7.353508912e-23)
(10 -4.060008323e-24 2.300723192e-24)
(10 -1.270271787e-25 7.198368847e-26)
(10 -3.974352263e-27 2.252183632e-27)
(10 -1.243472052e-28 7.046500079e-29)
(10 -3.890501914e-30 2.204667251e-30)
(10 -1.21723689e-31 6.89783014e-32)
(10 -3.808415535e-33 2.158150212e-33)
(10 -1.191552304e-34 6.752278914e-35)
(10 -3.728045248e-36 2.112605067e-36)
(10 -1.166401679e-37 6.609751091e-38)
(10 -3.649333044e-39 2.067998558e-39)
(10 -1.141764849e-40 6.470131299e-41)
(10 -3.572210016e-42 2.024291427e-42)
(10 -1.117619069e-43 6.333290852e-44)
(10 -3.496605536e-45 1.981444183e-45)
(10 -1.093944758e-46 6.199122778e-47)
(10 -3.422477964e-48 1.939435554e-48)
(10 -1.070740498e-49 6.067631053e-50)
(10 -3.349883317e-51 1.898303034e-51)
(10 -1.048052909e-52 5.939105895e-53)
(10 -3.279099749e-54 1.858215527e-54)
(10 -1.02602654e-55 5.81441355e-56)
(10 -3.210820441e-57 1.8195849e-57)
(10 -1.004975937e-58 5.695411328e-59)
(10 -3.146413976e-60 1.783215314e-60)
(10 -9.854765732e-62 5.585466976e-62)
(10 -3.088230852e-63 1.750477547e-63)
(10 -9.684642797e-65 5.490021466e-65)
(10 -3.039912165e-66 1.723482737e-66)
(10 -9.553260537e-68 5.417096512e-68)
(10 -3.00663803e-69 1.705219816e-69)
(10 -9.479607223e-71 5.377624286e-71)
(10 -2.995245294e-72 1.699616739e-72)
(10 -9.48787589e-74 5.385476283e-74)
(10 -3.014150506e-75 1.711489759e-75)
(10 -9.606856319e-77 5.457094867e-77)
(10 -3.073035433e-78 1.746357445e-78)
(10 -9.868546193e-80 5.610681923e-80)
(10 -3.182285486e-81 1.81011514e-81)
(10 -1.030601127e-82 5.864965305e-83)
(10 -3.352210101e-84 1.9085875e-84)
(10 -1.095064718e-85 6.237633065e-86)
(10 -3.592111181e-87 2.046997567e-87)
(10 -1.182910132e-88 6.743584524e-89)
(10 -3.909294113e-90 2.229406528e-90)
(10 -1.29601834e-91 7.393185548e-92)
(10 -4.308130755e-93 2.458186314e-93)
(10 -1.435211508e-94 8.190726381e-95)
(10 -4.789282713e-96 2.733586091e-96)
(10 -1.600044136e-97 9.13326307e-98)
(10 -5.349177036e-99 3.053444105e-99)
(10 -1.788685404e-100 1.02099816e-100)
(10 -5.979798169e-102 3.413080055e-102)
(10 -1.997907489e-103 1.140216492e-103)
(10 -6.668824458e-105 3.805382913e-105)
(10 -2.223182848e-106 1.268377629e-106)
(10 -7.400100152e-108 4.221087966e-108)
(10 -2.458882003e-109 1.402260784e-109)
(10 -8.154399689e-111 4.649217701e-111)
(10 -2.698553549e-112 1.538188823e-112)
(10 -8.910414211e-114 5.077646192e-114)
(10 -2.935261119e-115 1.672220487e-115)
(10 -9.645873077e-117 5.493737239e-117)
(10 -3.161948272e-118 1.800357538e-118)
(10 -1.033870672e-119 5.885003171e-120)
(10 -3.371801896e-121 1.918750233e-121)
(10 -1.157970967e-15 3.225178796e-15)
)
;

boundaryField
{
    left
    {
        type            dirichlet;
        value           uniform (4 0 0);
    }
    right
    {
        type            dirichlet;
        value           uniform (4 0 0);
    }
    sides
    {
        type            empty;
    }
}


// ************************************************************************* //
