/*--------------------------------*- C++ -*----------------------------------*\
| =========                 |                                                 |
| \\      /  F ield         | foam-extend: Open Source CFD                    |
|  \\    /   O peration     | Version:     4.1                                |
|   \\  /    A nd           | Web:         http://www.foam-extend.org         |
|    \\/     M anipulation  |                                                 |
\*---------------------------------------------------------------------------*/
FoamFile
{
    version     2.0;
    format      ascii;
    class       cellScalarField;
    location    "46.8";
    object      T;
}
// * * * * * * * * * * * * * * * * * * * * * * * * * * * * * * * * * * * * * //

dimensions      [0 0 0 0 1 0 0];

internalField   nonuniform 
100
(
(4 -5.703630593e-17 1.624202108e-17)
(4 -1.984501253e-16 5.674229576e-18)
(4 1.170566708e-16 1.706887925e-16)
(4 -2.377667466e-16 9.779177484e-18)
(4 2.853900496e-16 -2.760982723e-16)
(4 -5.48400981e-16 -1.289959661e-16)
(4 4.402925565e-16 -1.390268706e-16)
(4 -4.321636917e-16 -1.670513902e-16)
(4 9.629214108e-16 3.157867842e-17)
(4 -1.199078724e-15 1.57073806e-16)
(4 3.676597495e-16 -2.722018475e-17)
(4 -6.588717863e-17 -1.194216507e-16)
(4 9.663114196e-16 2.121103805e-17)
(4 -4.113669102e-16 3.901217752e-16)
(4 -2.286644098e-17 2.063860809e-16)
(4 8.768930088e-17 7.587315125e-17)
(4 -1.931811817e-16 -3.058715455e-17)
(4 1.082375115e-16 1.643328259e-16)
(4 -1.221084816e-16 -5.527047765e-18)
(4 6.811430426e-17 1.953343463e-16)
(4 2.074023708e-17 -5.510372366e-17)
(4 -4.026454623e-17 2.386578262e-16)
(4 -4.524868147e-17 -6.204041284e-17)
(4 -5.01521473e-17 -1.314035844e-16)
(4 3.961606133e-17 1.674434628e-17)
(4 3.245223668e-17 -5.233418611e-17)
(4 5.140817584e-17 -6.736502608e-18)
(4 -9.528129031e-17 -4.079595319e-17)
(4 -2.623063722e-16 -2.639178686e-17)
(4 3.749680907e-16 -4.916578418e-18)
(4 -3.689101684e-17 5.985777416e-17)
(4 -7.722604954e-20 -2.091233326e-17)
(4 -1.035207888e-16 -1.292545402e-16)
(4 -4.814896265e-16 6.457816524e-17)
(4 3.485149166e-16 -3.314743951e-18)
(4 -4.377471442e-16 2.1748919e-16)
(4 8.839791002e-16 1.212387064e-16)
(4 -1.092011052e-15 -1.904344749e-17)
(4 6.328451123e-16 -1.077311789e-16)
(4 6.775437083e-17 -1.361493419e-16)
(4 3.063709537e-17 9.400629117e-18)
(4 1.144472602e-16 5.456283533e-17)
(4 -1.345796841e-16 3.355266892e-16)
(4 8.18909836e-17 1.952271028e-16)
(4 -6.019547586e-16 1.216429146e-16)
(4 9.61017556e-16 -1.41680591e-16)
(4 -9.08253797e-16 2.249548999e-16)
(4 6.977608011e-16 2.395367121e-17)
(4 -7.927236689e-16 -2.669612501e-17)
(4 3.286943357e-16 5.502556682e-17)
(4 -7.264344458e-17 5.327928162e-17)
(4 1.032889533e-16 -1.065309796e-16)
(4 -1.848588025e-16 8.944536212e-17)
(4 7.485060876e-17 -7.34416385e-17)
(4 8.657068886e-17 1.027143316e-16)
(4 -5.616756292e-17 9.097324535e-17)
(4 -1.660063989e-16 9.872506909e-17)
(4 -4.495035633e-18 1.229290237e-17)
(4 -1.056177062e-16 1.142029179e-16)
(4 -5.758369917e-17 3.011700317e-17)
(4 6.542394432e-17 6.430852293e-17)
(4 9.503540842e-16 2.698987184e-16)
(4 4.754388818e-15 2.300015105e-15)
(4 4.399686738e-14 1.987901744e-14)
(4 3.422897682e-13 1.401332445e-13)
(4 2.429105067e-12 9.566222451e-13)
(4 1.61490701e-11 6.100217563e-12)
(4 1.004151373e-10 3.624538367e-11)
(4.000000001 5.82160423e-10 2.000967619e-10)
(4.000000004 3.138036849e-09 1.023157011e-09)
(4.00000002 1.568732158e-08 4.833642308e-09)
(4.000000098 7.258511345e-08 2.105702804e-08)
(4.000000441 3.104213438e-07 8.448027801e-08)
(4.000001829 1.226119249e-06 3.119379461e-07)
(4.00000703 4.472185073e-06 1.05997057e-06)
(4.000025043 1.506826821e-05 3.315748427e-06)
(4.000082752 4.693460936e-05 9.554787954e-06)
(4.000253905 0.0001352931179 2.538593412e-05)
(4.000724397 0.0003613895104 6.224812081e-05)
(4.001924802 0.0008958264592 0.0001410124048)
(4.004771562 0.002063920753 0.0002953904358)
(4.011056294 0.004426668259 0.000572653465)
(4.02399276 0.008852730109 0.001027997878)
(4.048859501 0.01653454935 0.001709224389)
(4.093566082 0.02888756778 0.002631493057)
(4.168855956 0.04728319879 0.003747834656)
(4.287805221 0.07261660195 0.004927629271)
(4.464358896 0.1047935485 0.005958177295)
(4.710901622 0.142304502 0.006579768313)
(5.035240579 0.1820889086 0.006551768053)
(5.43774346 0.2198386331 0.005731071969)
(5.909539259 0.2507467313 0.004133487235)
(6.432522718 0.2705286455 0.001950681951)
(6.981414017 0.2764112144 -0.0004886973194)
(7.527483452 0.2677705666 -0.002802323524)
(8.043014599 0.2462173839 -0.004652212712)
(8.505368471 0.2151253949 -0.005823093691)
(8.899697865 0.1787868214 -0.006257141285)
(9.219843582 0.1414784055 -0.00604023365)
(9.467509392 0.1067044759 -0.005352946215)
)
;

boundaryField
{
    left
    {
        type            dirichlet;
        value           uniform (4 0 0);
    }
    right
    {
        type            dirichlet;
        value           uniform (4 0 0);
    }
    sides
    {
        type            empty;
    }
}


// ************************************************************************* //
