/*--------------------------------*- C++ -*----------------------------------*\
| =========                 |                                                 |
| \\      /  F ield         | foam-extend: Open Source CFD                    |
|  \\    /   O peration     | Version:     4.1                                |
|   \\  /    A nd           | Web:         http://www.foam-extend.org         |
|    \\/     M anipulation  |                                                 |
\*---------------------------------------------------------------------------*/
FoamFile
{
    version     2.0;
    format      ascii;
    class       cellScalarField;
    location    "27.2";
    object      T;
}
// * * * * * * * * * * * * * * * * * * * * * * * * * * * * * * * * * * * * * //

dimensions      [0 0 0 0 1 0 0];

internalField   nonuniform 
100
(
(4 -5.703630593e-17 1.624202108e-17)
(4 -2.153957536e-17 2.019652655e-16)
(4 2.185454985e-17 4.854452034e-17)
(4 -6.986784399e-17 3.112721995e-17)
(4 -2.114176082e-16 -1.768728853e-18)
(4 -3.905021027e-16 7.99166035e-18)
(4 4.948335416e-16 1.082392722e-16)
(4 -4.917135154e-16 -1.22914412e-16)
(4 8.836180813e-16 -1.544460345e-17)
(4 -1.436412762e-15 -1.498209365e-16)
(4 1.735429273e-16 1.845740688e-16)
(4 -4.081871303e-17 6.214549341e-18)
(4 8.390727422e-16 -1.042936678e-17)
(4 5.012620102e-18 2.787195018e-16)
(4 -4.227684841e-16 -2.268306133e-16)
(4 9.840592955e-16 -4.565342216e-17)
(4 -1.146164866e-15 1.165232776e-16)
(4 1.111876905e-15 -2.638354725e-16)
(4 -9.840048175e-16 1.467670531e-16)
(4 8.369099438e-16 4.622508831e-17)
(4 -8.116553225e-16 1.808988812e-16)
(4 5.177050736e-16 -1.60241804e-16)
(4 -1.471014477e-16 1.979467885e-16)
(4 1.486579323e-17 1.284774727e-16)
(4 -2.525399959e-16 -4.300377486e-17)
(4 -1.363473504e-16 -1.602254175e-16)
(4 1.39553739e-16 -1.134302411e-16)
(4 -1.689659722e-16 1.700258627e-16)
(4 -4.166336186e-16 -6.710687973e-17)
(4 4.1767547e-16 1.016185017e-16)
(4 3.281347641e-15 2.772978354e-15)
(4 5.52972155e-14 3.02767877e-14)
(4 6.516896012e-13 3.412459728e-13)
(4 7.210471491e-12 3.642606157e-12)
(4 7.389941933e-11 3.583022601e-11)
(4.000000001 6.974012415e-10 3.226595723e-10)
(4.000000006 6.016224523e-09 2.639960283e-09)
(4.00000005 4.711668807e-08 1.947283595e-08)
(4.000000367 3.3218007e-07 1.280501055e-07)
(4.000002421 2.084612297e-06 7.404319604e-07)
(4.000014183 1.150996398e-05 3.719643145e-06)
(4.000073214 5.543309724e-05 1.611216844e-05)
(4.000331518 0.0002318917685 6.000683351e-05)
(4.001315459 0.0008423869388 0.0001922457125)
(4.004583133 0.002663938491 0.0005310486375)
(4.014075882 0.007363582715 0.001268558333)
(4.038303583 0.01787749699 0.002627388838)
(4.092887991 0.03831679693 0.004725290045)
(4.201973308 0.072867735 0.00737515254)
(4.396269374 0.1235561924 0.009947144343)
(4.706106096 0.1876669779 0.01146216959)
(5.150368188 0.2564472582 0.01097770941)
(5.725464877 0.316570859 0.008101634406)
(6.400133167 0.3543822239 0.003309782729)
(7.119982837 0.3610480306 -0.002177650827)
(7.82088853 0.3359092869 -0.006917429103)
(8.445667249 0.2863071388 -0.009851475637)
(8.957055632 0.2242386321 -0.01065902767)
(9.342513215 0.161847223 -0.009713975073)
(9.610792551 0.107945713 -0.007762193998)
(9.783659945 0.06670307867 -0.005552403467)
(9.887039867 0.038283623 -0.003600644967)
(9.94455666 0.0204573278 -0.002135217692)
(9.974395811 0.0102012874 -0.001165364204)
(9.988862616 0.004757681226 -0.0005883670116)
(9.995431324 0.002079693348 -0.0002759504128)
(9.998230328 0.00085381484 -0.0001206639439)
(9.999351851 0.0003298790606 -4.934774595e-05)
(9.999775231 0.0001201737632 -1.892950296e-05)
(9.999926093 4.135594792e-05 -6.828458221e-06)
(9.999976926 1.346860866e-05 -2.321986385e-06)
(9.99999315 4.1583537e-06 -7.459681927e-07)
(9.999998064 1.219177352e-06 -2.268892903e-07)
(9.999999478 3.399914748e-07 -6.546330533e-08)
(9.999999866 9.032553646e-08 -1.795078523e-08)
(9.999999967 2.289588947e-08 -4.686420927e-09)
(9.999999992 5.545619809e-09 -1.16682158e-09)
(9.999999998 1.285303694e-09 -2.775076395e-10)
(10 2.854456818e-10 -6.314115526e-11)
(10 6.082804806e-11 -1.376438242e-11)
(10 1.2450089e-11 -2.879450205e-12)
(10 2.448799664e-12 -5.783865775e-13)
(10 4.609993584e-13 -1.099496857e-13)
(10 8.925365211e-14 -2.098246169e-14)
(10 1.629703089e-14 -3.52356952e-15)
(10 3.306076473e-15 -1.176745081e-15)
(10 3.937949418e-17 9.075866462e-16)
(10 -1.199532954e-15 -5.870168023e-17)
(10 6.285079561e-16 -3.286060256e-16)
(10 -7.767204708e-17 7.644185728e-17)
(10 5.51702923e-17 -5.824453409e-16)
(10 -4.241162536e-16 -1.118776932e-17)
(10 1.476345536e-17 7.342659411e-18)
(10 -4.348977801e-16 -5.550504411e-16)
(10 5.535754537e-16 3.233179827e-16)
(10 -5.190817346e-17 1.349487803e-16)
(10 -1.744014443e-16 2.778944506e-16)
(10 -2.645430408e-16 1.306536702e-16)
(10 -4.274448862e-17 -4.93383586e-16)
(10 2.200926577e-16 3.003124412e-15)
)
;

boundaryField
{
    left
    {
        type            dirichlet;
        value           uniform (4 0 0);
    }
    right
    {
        type            dirichlet;
        value           uniform (4 0 0);
    }
    sides
    {
        type            empty;
    }
}


// ************************************************************************* //
