/*--------------------------------*- C++ -*----------------------------------*\
| =========                 |                                                 |
| \\      /  F ield         | foam-extend: Open Source CFD                    |
|  \\    /   O peration     | Version:     4.1                                |
|   \\  /    A nd           | Web:         http://www.foam-extend.org         |
|    \\/     M anipulation  |                                                 |
\*---------------------------------------------------------------------------*/
FoamFile
{
    version     2.0;
    format      ascii;
    class       cellScalarField;
    location    "2.9";
    object      T;
}
// * * * * * * * * * * * * * * * * * * * * * * * * * * * * * * * * * * * * * //

dimensions      [0 0 0 0 1 0 0];

internalField   nonuniform 10((3.999998348 -2.778949395e-06 4.588910472e-06) (4.000172025 0.0002487854733 8.56154491e-06) (4.000757423 -2.194691003e-06 0.002293195849) (4.06169821 0.09363997668 0.05267291349) (4.70102751 0.6091365715 0.1125313714) (6.480950659 1.091979364 0.003019346454) (8.475105204 0.811338463 -0.09095036949) (9.574254581 0.309469988 -0.05865670584) (9.918847238 0.07133322101 -0.01728958374) (9.988585489 0.01134027601 -0.003165818555));

boundaryField
{
    left
    {
        type            dirichlet;
        value           uniform (4 0 0);
    }
    right
    {
        type            dirichlet;
        value           uniform (4 0 0);
    }
    sides
    {
        type            empty;
    }
}


// ************************************************************************* //
