/*--------------------------------*- C++ -*----------------------------------*\
| =========                 |                                                 |
| \\      /  F ield         | foam-extend: Open Source CFD                    |
|  \\    /   O peration     | Version:     4.1                                |
|   \\  /    A nd           | Web:         http://www.foam-extend.org         |
|    \\/     M anipulation  |                                                 |
\*---------------------------------------------------------------------------*/
FoamFile
{
    version     2.0;
    format      ascii;
    class       cellScalarField;
    location    "3.9";
    object      T;
}
// * * * * * * * * * * * * * * * * * * * * * * * * * * * * * * * * * * * * * //

dimensions      [0 0 0 0 1 0 0];

internalField   nonuniform 10((4.000000024 4.960796758e-08 8.187236517e-09) (3.9999996 -1.297335851e-06 2.857953446e-07) (4.000032875 6.160630171e-05 2.94948921e-05) (4.0003912 0.0001736448014 0.0001445093359) (4.008643178 0.01313714841 0.01057413684) (4.159597001 0.1738943221 0.05802219849) (4.926185989 0.6210215849 0.07994244336) (6.552566539 0.9466496962 0.001359086958) (8.314795105 0.7526589815 -0.06627839541) (9.416963493 0.354532116 -0.05457092678));

boundaryField
{
    left
    {
        type            dirichlet;
        value           uniform (4 0 0);
    }
    right
    {
        type            dirichlet;
        value           uniform (4 0 0);
    }
    sides
    {
        type            empty;
    }
}


// ************************************************************************* //
