/*--------------------------------*- C++ -*----------------------------------*\
| =========                 |                                                 |
| \\      /  F ield         | foam-extend: Open Source CFD                    |
|  \\    /   O peration     | Version:     4.1                                |
|   \\  /    A nd           | Web:         http://www.foam-extend.org         |
|    \\/     M anipulation  |                                                 |
\*---------------------------------------------------------------------------*/
FoamFile
{
    version     2.0;
    format      ascii;
    class       cellScalarField;
    location    "0.3";
    object      T;
}
// * * * * * * * * * * * * * * * * * * * * * * * * * * * * * * * * * * * * * //

dimensions      [0 0 0 0 1 0 0];

internalField   nonuniform 10((6.579529796 3.012996704 -0.2303363538) (9.827340159 0.2552760354 -0.1115102022) (9.993365058 0.01116275529 -0.005593415632) (9.999772541 0.0004059040263 -0.000214172366) (9.99999268 1.350806531e-05 -7.321450506e-06) (9.999999774 4.266264313e-07 -2.35031305e-07) (9.999999993 1.301607721e-08 -7.248608187e-09) (10 3.874595902e-10 -2.174248339e-10) (10 1.132271339e-11 -6.389919316e-12) (10 3.249936055e-13 -1.796937824e-13));

boundaryField
{
    left
    {
        type            dirichlet;
        value           uniform (4 0 0);
    }
    right
    {
        type            dirichlet;
        value           uniform (4 0 0);
    }
    sides
    {
        type            empty;
    }
}


// ************************************************************************* //
