/*--------------------------------*- C++ -*----------------------------------*\
| =========                 |                                                 |
| \\      /  F ield         | foam-extend: Open Source CFD                    |
|  \\    /   O peration     | Version:     4.1                                |
|   \\  /    A nd           | Web:         http://www.foam-extend.org         |
|    \\/     M anipulation  |                                                 |
\*---------------------------------------------------------------------------*/
FoamFile
{
    version     2.0;
    format      ascii;
    class       cellScalarField;
    location    "1.4";
    object      T;
}
// * * * * * * * * * * * * * * * * * * * * * * * * * * * * * * * * * * * * * //

dimensions      [0 0 0 0 1 0 0];

internalField   nonuniform 10((3.998477585 -0.007020717809 0.004686281354) (4.230703138 0.3972040489 0.2031621584) (6.254454997 1.53085169 0.01901241681) (8.88885909 0.894733379 -0.172708387) (9.842636083 0.1661002995 -0.04798150582) (9.985892733 0.01684354427 -0.005626267012) (9.999034719 0.001237909758 -0.0004471514318) (9.999944602 7.449373021e-05 -2.829034253e-05) (9.999997189 3.910476642e-06 -1.538468382e-06) (9.99999987 1.858542936e-07 -7.508481736e-08));

boundaryField
{
    left
    {
        type            dirichlet;
        value           uniform (4 0 0);
    }
    right
    {
        type            dirichlet;
        value           uniform (4 0 0);
    }
    sides
    {
        type            empty;
    }
}


// ************************************************************************* //
