/*--------------------------------*- C++ -*----------------------------------*\
| =========                 |                                                 |
| \\      /  F ield         | foam-extend: Open Source CFD                    |
|  \\    /   O peration     | Version:     4.1                                |
|   \\  /    A nd           | Web:         http://www.foam-extend.org         |
|    \\/     M anipulation  |                                                 |
\*---------------------------------------------------------------------------*/
FoamFile
{
    version     2.0;
    format      ascii;
    class       cellScalarField;
    location    "3.1";
    object      T;
}
// * * * * * * * * * * * * * * * * * * * * * * * * * * * * * * * * * * * * * //

dimensions      [0 0 0 0 1 0 0];

internalField   nonuniform 10((3.999999342 -1.993063708e-06 8.702638531e-08) (4.000060149 0.0001185451065 4.818462517e-05) (4.000501605 -0.0001409249076 0.0002418729229) (4.020034336 0.03342167247 0.02585950472) (4.35840663 0.368403873 0.09891114965) (5.696317318 0.952587104 0.05704609406) (7.72952527 0.9731394524 -0.06592704111) (9.214312631 0.4935959623 -0.07621304366) (9.816298348 0.1457337213 -0.03128979591) (9.969036735 0.02852499432 -0.007335135632));

boundaryField
{
    left
    {
        type            dirichlet;
        value           uniform (4 0 0);
    }
    right
    {
        type            dirichlet;
        value           uniform (4 0 0);
    }
    sides
    {
        type            empty;
    }
}


// ************************************************************************* //
