/*--------------------------------*- C++ -*----------------------------------*\
| =========                 |                                                 |
| \\      /  F ield         | foam-extend: Open Source CFD                    |
|  \\    /   O peration     | Version:     4.1                                |
|   \\  /    A nd           | Web:         http://www.foam-extend.org         |
|    \\/     M anipulation  |                                                 |
\*---------------------------------------------------------------------------*/
FoamFile
{
    version     2.0;
    format      ascii;
    class       cellScalarField;
    location    "10";
    object      T;
}
// * * * * * * * * * * * * * * * * * * * * * * * * * * * * * * * * * * * * * //

dimensions      [0 0 0 0 1 0 0];

internalField   nonuniform 
100
(
(4 -5.703630593e-17 1.624202108e-17)
(4 1.52505397e-17 -2.83938663e-17)
(4 -2.274945129e-16 -4.926323029e-17)
(4 1.320036785e-16 4.659063609e-16)
(4 -2.887133311e-15 -6.51564165e-15)
(4 1.206911853e-13 2.149341549e-13)
(4 3.047820422e-12 -3.357838917e-13)
(4 4.27073059e-11 7.130425348e-11)
(4.000000002 2.275328017e-09 1.149623542e-09)
(4.000000026 2.750200987e-08 1.942345191e-08)
(4.000000503 6.293237332e-07 4.052356073e-07)
(4.000007937 8.797887996e-06 4.542254541e-06)
(4.000092846 9.874158893e-05 5.31954755e-05)
(4.001018823 0.001075845458 0.000505722255)
(4.008786685 0.008231650651 0.002918171747)
(4.051976362 0.04017582733 0.0102153924)
(4.212188239 0.129828826 0.02258711509)
(4.625786806 0.2923337639 0.03180430028)
(5.399562089 0.4787215669 0.02613024031)
(6.484378909 0.5899646383 0.005049652072)
(7.655909296 0.5625801128 -0.01750850358)
(8.653249516 0.4249161063 -0.02792422273)
(9.336055225 0.2593998458 -0.02493324308)
(9.718703725 0.1303123803 -0.01602699329)
(9.897064571 0.05475213826 -0.008039724585)
(9.967236283 0.01952793387 -0.003282219972)
(9.990855529 0.005993295055 -0.0011210363)
(9.997742916 0.0016027519 -0.0003270222396)
(9.999503123 0.0003777883536 -8.284728817e-05)
(9.999901635 7.931929575e-05 -1.848431142e-05)
(9.999982351 1.497686867e-05 -3.676064335e-06)
(9.999997109 2.565424915e-06 -6.58536911e-07)
(9.999999565 4.018124236e-07 -1.07252349e-07)
(9.999999939 5.795822027e-08 -1.601072513e-08)
(9.999999992 7.748828963e-09 -2.206692905e-09)
(9.999999999 9.658616727e-10 -2.826194192e-10)
(10 1.128329995e-10 -3.382910986e-11)
(10 1.241492602e-11 -3.804099474e-12)
(10 1.293667539e-12 -4.03579553e-13)
(10 1.240338454e-13 -4.068439927e-14)
(10 1.158437579e-14 -3.635172058e-15)
(10 -1.124105335e-15 1.06026901e-16)
(10 9.018976332e-16 -2.592690186e-16)
(10 1.281293727e-16 4.695616668e-16)
(10 -1.999250844e-16 -1.204413266e-16)
(10 -3.172734935e-16 -4.374686213e-16)
(10 5.007550492e-16 1.859607968e-16)
(10 -2.4959438e-16 3.313184597e-16)
(10 -3.394203216e-16 4.504171779e-16)
(10 1.135894518e-16 6.715976406e-17)
(10 -4.885803255e-17 -4.906707353e-16)
(10 -1.367610534e-16 -2.275212584e-16)
(10 -4.526645062e-16 2.049997724e-16)
(10 7.66314131e-17 -4.560418688e-16)
(10 -3.890908843e-17 2.104987987e-16)
(10 5.175323743e-17 -5.356849163e-16)
(10 -1.850080571e-16 -7.049370054e-16)
(10 5.167549901e-16 6.880397902e-17)
(10 2.521972637e-16 -3.23837033e-16)
(10 3.154154458e-16 9.099457597e-17)
(10 -9.4981429e-17 -3.412633864e-16)
(10 -3.230256853e-16 1.435149753e-16)
(10 2.702103883e-16 3.627630521e-16)
(10 2.542467824e-16 1.98269164e-16)
(10 7.063036216e-17 -1.300741167e-16)
(10 2.003305938e-16 -4.568655765e-17)
(10 6.661592292e-17 3.324893204e-16)
(10 -4.697015497e-17 4.058488984e-16)
(10 1.661343298e-16 -3.98837274e-17)
(10 -3.0464003e-16 -2.973509691e-16)
(10 5.972373657e-16 1.752579858e-16)
(10 1.036558079e-16 1.548792164e-16)
(10 2.740071264e-16 -1.912524649e-16)
(10 -4.549503887e-16 -4.211899109e-16)
(10 1.985068492e-16 7.936791764e-17)
(10 2.176562137e-16 1.941894224e-16)
(10 1.914056937e-16 1.564400396e-16)
(10 3.967264057e-16 -6.142899043e-16)
(10 -7.892284241e-17 6.213081086e-16)
(10 -2.585798516e-16 2.639403207e-16)
(10 3.099361973e-16 2.205613673e-16)
(10 -2.253598173e-16 -2.271492778e-16)
(10 -5.845415743e-17 1.26938915e-16)
(10 -4.113289303e-16 3.103697465e-16)
(10 -2.804513889e-16 1.823053899e-16)
(10 -2.177170213e-17 -7.571648838e-17)
(10 2.115558615e-16 -8.349992143e-17)
(10 -6.780030097e-17 1.549248937e-16)
(10 -1.820881838e-16 -6.651417345e-17)
(10 -2.315712357e-16 1.288297897e-17)
(10 -3.604858549e-17 7.797505717e-16)
(10 -1.959022461e-16 2.966755624e-16)
(10 -4.527813795e-16 2.84229793e-16)
(10 8.517485773e-18 3.109506195e-17)
(10 -5.821685624e-17 2.011315598e-16)
(10 -1.57599631e-16 4.256786583e-17)
(10 -7.511947905e-17 -4.617334172e-16)
(10 2.315652255e-16 -3.373756552e-16)
(10 1.914212538e-16 -5.530711089e-16)
(10 1.306544181e-16 3.272209955e-15)
)
;

boundaryField
{
    left
    {
        type            dirichlet;
        value           uniform (4 0 0);
    }
    right
    {
        type            dirichlet;
        value           uniform (4 0 0);
    }
    sides
    {
        type            empty;
    }
}


// ************************************************************************* //
