/*--------------------------------*- C++ -*----------------------------------*\
| =========                 |                                                 |
| \\      /  F ield         | foam-extend: Open Source CFD                    |
|  \\    /   O peration     | Version:     4.1                                |
|   \\  /    A nd           | Web:         http://www.foam-extend.org         |
|    \\/     M anipulation  |                                                 |
\*---------------------------------------------------------------------------*/
FoamFile
{
    version     2.0;
    format      ascii;
    class       cellScalarField;
    location    "7.1";
    object      T;
}
// * * * * * * * * * * * * * * * * * * * * * * * * * * * * * * * * * * * * * //

dimensions      [0 0 0 0 1 0 0];

internalField   nonuniform 
100
(
(4 4.030089812e-15 -1.662264653e-15)
(4 -2.307360502e-13 1.427750127e-13)
(4 1.202328587e-11 -1.819449937e-12)
(4 -1.863889248e-10 1.071392446e-10)
(4.000000005 9.109219081e-09 3.549582106e-09)
(4.000000055 2.222783125e-08 3.550230823e-08)
(4.000001866 2.86458073e-06 2.149296897e-06)
(4.000038399 4.140499759e-05 1.918493433e-05)
(4.000461053 0.0005089307528 0.0003364130039)
(4.006473424 0.007372234966 0.00358485708)
(4.058387784 0.05368526449 0.01659384622)
(4.2991624 0.204746528 0.03805202375)
(4.958464371 0.462719515 0.044045229)
(6.116533892 0.6758314498 0.01660717644)
(7.503100336 0.678348286 -0.02205666885)
(8.688373568 0.4903919544 -0.03910154431)
(9.43947183 0.2653357668 -0.03166432904)
(9.80384979 0.1110593298 -0.01697365641)
(9.943095887 0.03702560224 -0.006714026085)
(9.986107619 0.01009167374 -0.002075889795)
(9.997100526 0.002301653937 -0.0005216528304)
(9.999474675 0.0004484123895 -0.0001097416916)
(9.999916186 7.598524049e-05 -1.979097916e-05)
(9.99998807 1.13773149e-05 -3.119800914e-06)
(9.999998467 1.525968286e-06 -4.369180287e-07)
(9.99999982 1.855161154e-07 -5.51079872e-08)
(9.999999981 2.065323888e-08 -6.332711395e-09)
(9.999999998 2.124257925e-09 -6.695765316e-10)
(10 2.03412431e-10 -6.569137229e-11)
(10 1.825515639e-11 -6.024530157e-12)
(10 1.542851919e-12 -5.190590117e-13)
(10 1.25152607e-13 -4.261710969e-14)
(10 1.022226894e-14 -4.477405359e-15)
(10 -5.368164573e-16 4.52638823e-16)
(10 -7.740599431e-16 6.365553443e-16)
(10 2.172899447e-16 1.917384246e-16)
(10 -6.250474639e-16 1.300795818e-16)
(10 1.397866741e-16 5.956662771e-16)
(10 -1.0800883e-15 -3.542608474e-16)
(10 2.036351634e-15 1.323127905e-16)
(10 -1.027415871e-15 3.10083061e-16)
(10 1.132313872e-15 2.226110611e-16)
(10 -1.159570829e-15 9.153517228e-16)
(10 -1.314320578e-17 -2.456739455e-16)
(10 -2.463641266e-16 4.444639124e-17)
(10 9.96616542e-17 5.035786893e-17)
(10 -3.74170807e-16 -1.289384924e-16)
(10 -4.346320451e-16 6.318783472e-17)
(10 9.202464295e-17 5.184617075e-17)
(10 -1.327281041e-16 2.546491526e-16)
(10 -4.044114656e-16 3.422657871e-16)
(10 -4.684153743e-17 1.246802069e-16)
(10 2.282474086e-16 1.041815962e-16)
(10 -1.290679146e-16 -1.567093281e-16)
(10 9.225535844e-17 -4.501204319e-16)
(10 -1.68460354e-16 2.017738844e-16)
(10 -3.945048424e-16 -5.395500869e-16)
(10 1.416077703e-16 -1.838653843e-16)
(10 5.067129338e-16 4.735176634e-17)
(10 -2.603288152e-16 7.48973434e-16)
(10 -2.192187725e-16 5.69266038e-17)
(10 -1.854297256e-16 6.769899064e-17)
(10 -3.414641057e-16 4.102568964e-16)
(10 2.282727488e-17 1.218580069e-16)
(10 -2.649642611e-16 2.453169875e-16)
(10 -1.894112883e-17 4.26545229e-17)
(10 -2.350594994e-17 1.46179938e-16)
(10 -4.542592377e-16 -9.928045862e-17)
(10 -1.210248092e-18 -3.765913058e-16)
(10 1.093612822e-16 -2.476806326e-16)
(10 8.523293909e-17 -4.060719251e-16)
(10 -5.817897996e-17 -2.008818928e-16)
(10 3.82304655e-17 2.275369465e-16)
(10 -1.685932662e-17 -1.087825639e-17)
(10 2.413900432e-16 1.962281516e-16)
(10 -2.66512645e-16 -2.695542951e-17)
(10 1.364883093e-16 1.74959894e-17)
(10 -2.188385326e-16 5.564619606e-16)
(10 -1.000862168e-15 5.078880458e-16)
(10 1.354184939e-16 -7.673887638e-17)
(10 4.236895964e-18 -2.400961834e-18)
(10 1.325615644e-19 -7.511991314e-20)
(10 4.147509993e-21 -2.350308642e-21)
(10 1.297649075e-22 -7.353510516e-23)
(10 4.060009799e-24 -2.300724081e-24)
(10 1.270272517e-25 -7.198373192e-26)
(10 3.974355599e-27 -2.252185607e-27)
(10 1.243473523e-28 -7.046508804e-29)
(10 3.890508449e-30 -2.204671151e-30)
(10 1.217239909e-31 -6.897848306e-32)
(10 3.808430225e-33 -2.158159109e-33)
(10 1.191559747e-34 -6.752324104e-35)
(10 3.728083609e-36 -2.112628333e-36)
(10 1.166421359e-37 -6.609870033e-38)
(10 3.649432069e-39 -2.068058123e-39)
(10 1.141813318e-40 -6.470421321e-41)
(10 3.572439844e-42 -2.024428212e-42)
(10 1.117724433e-43 -6.333914564e-44)
(10 3.497071927e-45 -1.981718763e-45)
(10 -4.567082726e-16 3.842751647e-15)
)
;

boundaryField
{
    left
    {
        type            dirichlet;
        value           uniform (4 0 0);
    }
    right
    {
        type            dirichlet;
        value           uniform (4 0 0);
    }
    sides
    {
        type            empty;
    }
}


// ************************************************************************* //
