-0.97375 -0.999996862463
-0.925 -0.999995227779
-0.875 -0.999991106738
-0.825 -0.999982352311
-0.775 -0.999964403614
-0.725 -0.999927910191
-0.675 -0.99985386251
-0.625 -0.999703696723
-0.575 -0.999399238936
-0.525 -0.99878212515
-0.475 -0.997531904321
-0.425 -0.995001587979
-0.375 -0.989890801575
-0.325 -0.979609789541
-0.275 -0.959096066245
-0.225 -0.918821417391
-0.175 -0.842193549607
-0.125 -0.704687606589
-0.075 -0.481789798024
-0.025 -0.173207179764
0.025 0.173207179765
0.075 0.481789798024
0.125 0.704687606589
0.175 0.842193549607
0.225 0.918821417391
0.275 0.959096066245
0.325 0.979609789541
0.375 0.989890801575
0.425 0.995001587979
0.475 0.997531904321
0.525 0.99878212515
0.575 0.999399238936
0.625 0.999703696723
0.675 0.99985386251
0.725 0.999927910191
0.775 0.999964403614
0.825 0.999982352311
0.875 0.999991106738
0.925 0.999995227779
