/*--------------------------------*- C++ -*----------------------------------*\
| =========                 |                                                 |
| \\      /  F ield         | foam-extend: Open Source CFD                    |
|  \\    /   O peration     | Version:     4.1                                |
|   \\  /    A nd           | Web:         http://www.foam-extend.org         |
|    \\/     M anipulation  |                                                 |
\*---------------------------------------------------------------------------*/
FoamFile
{
    version     2.0;
    format      ascii;
    class       cellScalarField;
    location    "0.5";
    object      T;
}
// * * * * * * * * * * * * * * * * * * * * * * * * * * * * * * * * * * * * * //

dimensions      [0 0 0 0 1 0 0];

internalField   nonuniform 
100
(
(5.05218239 1.737763814 0.4666020919)
(9.000863865 1.233850879 -0.3947710935)
(9.949075031 0.06984621828 -0.02599564433)
(9.997955374 0.002996422894 -0.001228342283)
(9.999925957 0.0001142286857 -5.024816097e-05)
(9.99999747 4.071601269e-06 -1.890153114e-06)
(9.999999917 1.388449955e-07 -6.723026981e-08)
(9.999999997 4.586108166e-09 -2.296392326e-09)
(10 1.478294293e-10 -7.605152176e-11)
(10 4.673242262e-12 -2.457689961e-12)
(10 1.44665834e-13 -7.692997893e-14)
(10 5.974348489e-15 -2.671547638e-15)
(10 -1.098054185e-15 5.622808732e-16)
(10 1.322534779e-16 -7.539204616e-17)
(10 4.336028482e-18 -2.503114026e-18)
(10 1.57990115e-19 -9.249952349e-20)
(10 6.430334101e-21 -3.793899678e-21)
(10 2.774325823e-22 -1.637119591e-22)
(10 1.201296896e-23 -7.060771284e-24)
(10 5.065650136e-25 -2.961911084e-25)
(10 2.05822199e-26 -1.197308891e-26)
(10 8.049751939e-28 -4.66135762e-28)
(10 3.038727494e-29 -1.752710163e-29)
(10 1.111398813e-30 -6.388909526e-31)
(10 3.95338291e-32 -2.266091992e-32)
(10 1.372404349e-33 -7.847293582e-34)
(10 4.663439942e-35 -2.660844701e-35)
(10 1.555069339e-36 -8.856431569e-37)
(10 5.099808939e-38 -2.899737334e-38)
(10 1.647856683e-39 -9.356279684e-40)
(10 5.254471822e-41 -2.979625887e-41)
(10 1.655646252e-42 -9.377957508e-43)
(10 5.161052489e-44 -2.920366692e-44)
(10 1.593224158e-45 -9.006946522e-46)
(10 4.874862523e-47 -2.75360693e-47)
(10 1.479538167e-48 -8.350971392e-49)
(10 4.457173581e-50 -2.514026781e-50)
(10 1.333581837e-51 -7.517170247e-52)
(10 3.964921931e-53 -2.233652622e-53)
(10 1.171946028e-54 -6.598638134e-55)
(10 3.44524614e-56 -1.938875711e-56)
(10 1.007710163e-57 -5.668443754e-58)
(10 2.933598342e-59 -1.649457887e-59)
(10 8.502527621e-61 -4.778741313e-61)
(10 2.454133614e-62 -1.378795553e-62)
(10 7.056032366e-64 -3.962859637e-64)
(10 2.021319407e-65 -1.134851027e-65)
(10 5.770488937e-67 -3.238775262e-67)
(10 1.642015388e-68 -9.213348415e-69)
(10 4.658066062e-70 -2.612914027e-70)
(10 1.317554731e-71 -7.388799838e-72)
(10 3.716478453e-73 -2.083668634e-73)
(10 1.045574363e-74 -5.860697868e-75)
(10 2.934232821e-76 -1.644339558e-76)
(10 8.214904601e-78 -4.602637416e-78)
(10 2.294706364e-79 -1.285414222e-79)
(10 6.396072548e-81 -3.582162053e-81)
(10 1.779112114e-82 -9.962191278e-83)
(10 4.938967673e-84 -2.765101272e-84)
(10 1.368512351e-85 -7.660378546e-86)
(10 3.785082601e-87 -2.118393629e-87)
(10 1.045077308e-88 -5.848068477e-89)
(10 2.880701472e-90 -1.61175037e-90)
(10 7.927813792e-92 -4.434973734e-92)
(10 2.178416356e-93 -1.21848175e-93)
(10 5.977037485e-95 -3.342773482e-95)
(10 1.637618271e-96 -9.157536165e-97)
(10 4.480676865e-98 -2.505282121e-98)
(10 1.224334977e-99 -6.844823509e-100)
(10 3.341203024e-101 -1.867736815e-101)
(10 9.106902577e-103 -5.090214167e-103)
(10 2.479259503e-104 -1.385611719e-104)
(10 6.741772463e-106 -3.767466593e-106)
(10 1.831232483e-107 -1.023236547e-107)
(10 4.968735081e-109 -2.776112442e-109)
(10 1.346778249e-110 -7.523974178e-111)
(10 3.646770749e-112 -2.037140271e-112)
(10 9.864986872e-114 -5.510252103e-114)
(10 2.666080044e-115 -1.489058596e-115)
(10 7.198646393e-117 -4.020260539e-117)
(10 1.941964534e-118 -1.084452325e-118)
(10 5.234266609e-120 -2.9227511e-120)
(10 1.409630496e-121 -7.870622255e-122)
(10 3.793149716e-123 -2.117739232e-123)
(10 1.019881819e-124 -5.69366549e-125)
(10 2.740087232e-126 -1.529596696e-126)
(10 7.356186324e-128 -4.106166281e-128)
(10 1.973438505e-129 -1.101487196e-129)
(10 5.290362418e-131 -2.952664303e-131)
(10 1.417249384e-132 -7.90948923e-133)
(10 3.794144948e-134 -2.117338454e-134)
(10 1.015069586e-135 -5.664310496e-136)
(10 2.713933205e-137 -1.514348736e-137)
(10 7.251550127e-139 -4.046073076e-139)
(10 1.936411153e-140 -1.080381555e-140)
(10 5.167800532e-142 -2.883119311e-142)
(10 1.378356457e-143 -7.689467311e-144)
(10 3.674269056e-145 -2.049670415e-145)
(10 9.789031693e-147 -5.460490939e-147)
(10 -3.427022558e-16 4.20276711e-15)
)
;

boundaryField
{
    left
    {
        type            dirichlet;
        value           uniform (4 0 0);
    }
    right
    {
        type            dirichlet;
        value           uniform (4 0 0);
    }
    sides
    {
        type            empty;
    }
}


// ************************************************************************* //
