/*--------------------------------*- C++ -*----------------------------------*\
| =========                 |                                                 |
| \\      /  F ield         | foam-extend: Open Source CFD                    |
|  \\    /   O peration     | Version:     4.1                                |
|   \\  /    A nd           | Web:         http://www.foam-extend.org         |
|    \\/     M anipulation  |                                                 |
\*---------------------------------------------------------------------------*/
FoamFile
{
    version     2.0;
    format      ascii;
    class       cellScalarField;
    location    "3.7";
    object      T;
}
// * * * * * * * * * * * * * * * * * * * * * * * * * * * * * * * * * * * * * //

dimensions      [0 0 0 0 1 0 0];

internalField   nonuniform 10((4.00000006 8.257416392e-08 -4.979994397e-08) (3.999999097 -1.273258765e-06 3.593150231e-06) (4.0000952 0.0001367877693 2.652066229e-05) (4.000690228 0.0003625075678 0.000883953551) (4.025457339 0.03740649618 0.02316339553) (4.328228685 0.3136086833 0.07999455201) (5.459338376 0.8159200054 0.06206816749) (7.307510814 0.949455472 -0.03762903378) (8.885101779 0.5913470318 -0.07197391541) (9.675591015 0.2231829538 -0.04056984554));

boundaryField
{
    left
    {
        type            dirichlet;
        value           uniform (4 0 0);
    }
    right
    {
        type            dirichlet;
        value           uniform (4 0 0);
    }
    sides
    {
        type            empty;
    }
}


// ************************************************************************* //
