/*--------------------------------*- C++ -*----------------------------------*\
| =========                 |                                                 |
| \\      /  F ield         | foam-extend: Open Source CFD                    |
|  \\    /   O peration     | Version:     4.1                                |
|   \\  /    A nd           | Web:         http://www.foam-extend.org         |
|    \\/     M anipulation  |                                                 |
\*---------------------------------------------------------------------------*/
FoamFile
{
    version     2.0;
    format      ascii;
    class       cellScalarField;
    location    "30";
    object      T;
}
// * * * * * * * * * * * * * * * * * * * * * * * * * * * * * * * * * * * * * //

dimensions      [0 0 0 0 1 0 0];

internalField   nonuniform 10((4.648591406 -0.4260874482 -0.0844577107) (3.713131749 -0.4538013933 0.03755119575) (2.954269501 -0.3670264337 0.01200148667) (2.322709577 -0.2896828367 0.02143150616) (1.852981586 -0.2085570623 0.01700404969) (1.522623837 -0.141793384 0.01393060523) (1.304632083 -0.09132680999 0.009628944975) (1.166221431 -0.05694755792 0.006582450583) (1.080181541 -0.03771972561 0.001772917868) (1.016653323 -0.0247712498 0.006838392739));

boundaryField
{
    left
    {
        type            dirichlet;
        value           uniform (5 0 0);
    }
    right
    {
        type            dirichlet;
        value           uniform (1 0 0);
    }
    sides
    {
        type            empty;
    }
}


// ************************************************************************* //
