/*--------------------------------*- C++ -*----------------------------------*\
| =========                 |                                                 |
| \\      /  F ield         | foam-extend: Open Source CFD                    |
|  \\    /   O peration     | Version:     4.1                                |
|   \\  /    A nd           | Web:         http://www.foam-extend.org         |
|    \\/     M anipulation  |                                                 |
\*---------------------------------------------------------------------------*/
FoamFile
{
    version     2.0;
    format      ascii;
    class       cellScalarField;
    location    "4.2";
    object      T;
}
// * * * * * * * * * * * * * * * * * * * * * * * * * * * * * * * * * * * * * //

dimensions      [0 0 0 0 1 0 0];

internalField   nonuniform 10((4.000000002 7.637052515e-09 9.054468905e-09) (4.000000064 -1.616257993e-07 -2.415774513e-07) (4.000003182 9.232068136e-06 1.151171319e-05) (4.000165333 0.0001541693023 1.536134705e-05) (4.001676473 0.002059411808 0.00242561388) (4.045807687 0.05851552194 0.02775857525) (4.407338542 0.3433974466 0.07367479431) (5.542740414 0.784302964 0.05183218274) (7.290911361 0.8947010513 -0.03171263274) (8.805459363 0.5860309661 -0.06450033642));

boundaryField
{
    left
    {
        type            dirichlet;
        value           uniform (4 0 0);
    }
    right
    {
        type            dirichlet;
        value           uniform (4 0 0);
    }
    sides
    {
        type            empty;
    }
}


// ************************************************************************* //
