/*--------------------------------*- C++ -*----------------------------------*\
| =========                 |                                                 |
| \\      /  F ield         | foam-extend: Open Source CFD                    |
|  \\    /   O peration     | Version:     4.1                                |
|   \\  /    A nd           | Web:         http://www.foam-extend.org         |
|    \\/     M anipulation  |                                                 |
\*---------------------------------------------------------------------------*/
FoamFile
{
    version     2.0;
    format      ascii;
    class       cellScalarField;
    location    "3.3";
    object      T;
}
// * * * * * * * * * * * * * * * * * * * * * * * * * * * * * * * * * * * * * //

dimensions      [0 0 0 0 1 0 0];

internalField   nonuniform 10((3.999999944 -5.903344949e-07 -4.742047312e-07) (4.000013939 3.738859238e-05 3.258622235e-05) (4.000367308 0.0001508159982 -7.278839038e-05) (4.005778699 0.009558096345 0.01058308552) (4.16517742 0.1961661919 0.0713987508) (5.068178635 0.736245855 0.08846200118) (6.920503057 1.028585871 -0.02234273276) (8.699546597 0.691087477 -0.08125591667) (9.628671991 0.2619766964 -0.0485231946) (9.924804607 0.06359246768 -0.01485060254));

boundaryField
{
    left
    {
        type            dirichlet;
        value           uniform (4 0 0);
    }
    right
    {
        type            dirichlet;
        value           uniform (4 0 0);
    }
    sides
    {
        type            empty;
    }
}


// ************************************************************************* //
