/*--------------------------------*- C++ -*----------------------------------*\
| =========                 |                                                 |
| \\      /  F ield         | foam-extend: Open Source CFD                    |
|  \\    /   O peration     | Version:     4.0                                |
|   \\  /    A nd           | Web:         http://www.foam-extend.org         |
|    \\/     M anipulation  |                                                 |
\*---------------------------------------------------------------------------*/
FoamFile
{
    version     2.0;
    format      ascii;
    class       cellScalarField;
    location    "1";
    object      T;
}
// * * * * * * * * * * * * * * * * * * * * * * * * * * * * * * * * * * * * * //

dimensions      [0 0 0 0 1 0 0];

internalField   uniform (2 0 0 0 0 0);
//nonuniform
//5
//(
//(1 1 1)
//(1 1 1)
//(0 0 2)
//(0 0 0)
//(1 1 1)
//);// 0 0 0 0 0 0 0);

boundaryField
{
    left
    {
//        type            homogenous;
        type            dirichlet;
        value           uniform (5 0 0 0 0 0);
    }
    right
    {
        type            dirichlet;
//        type            homogenous;
        value           uniform (1 0 0 0 0 0);
    }
    sides
    {
        type            empty;
    }
}


// ************************************************************************* //
