/*--------------------------------*- C++ -*----------------------------------*\
| =========                 |                                                 |
| \\      /  F ield         | foam-extend: Open Source CFD                    |
|  \\    /   O peration     | Version:     4.1                                |
|   \\  /    A nd           | Web:         http://www.foam-extend.org         |
|    \\/     M anipulation  |                                                 |
\*---------------------------------------------------------------------------*/
FoamFile
{
    version     2.0;
    format      ascii;
    class       cellScalarField;
    location    "39";
    object      T;
}
// * * * * * * * * * * * * * * * * * * * * * * * * * * * * * * * * * * * * * //

dimensions      [0 0 0 0 1 0 0];

internalField   nonuniform 
100
(
(4 -5.703630593e-17 1.624202108e-17)
(4 9.014944437e-17 1.479079304e-16)
(4 -1.306065091e-16 -1.49810445e-16)
(4 1.163714554e-16 -2.092105131e-16)
(4 -7.021627433e-17 -5.480441323e-17)
(4 -3.822790789e-16 -7.923655958e-17)
(4 4.015562197e-16 6.475546779e-17)
(4 -5.430435915e-16 1.759167932e-16)
(4 7.858625063e-16 -2.228910404e-16)
(4 -1.428950751e-15 1.301980386e-17)
(4 1.597445324e-16 -1.604382681e-16)
(4 3.295265002e-16 -1.108433577e-16)
(4 6.412449442e-16 1.428233668e-16)
(4 6.798969777e-17 7.459991073e-18)
(4 -2.024232529e-16 1.121979862e-16)
(4 5.157173608e-17 -1.227264993e-16)
(4 5.157528925e-17 -4.611860192e-17)
(4 -1.863705074e-16 5.651967714e-17)
(4 -5.557268835e-17 -6.044690259e-17)
(4 -6.482613283e-17 -1.22872389e-16)
(4 5.650440364e-17 -1.822193053e-17)
(4 -1.499827508e-16 8.269136456e-17)
(4 1.388438437e-16 -5.840118816e-17)
(4 -2.005835934e-16 1.150909572e-16)
(4 2.447347383e-16 -1.65115166e-16)
(4 -1.189580502e-16 9.189657614e-17)
(4 3.954360434e-16 1.174730809e-16)
(4 -5.418620909e-16 -4.021364232e-16)
(4 4.168106738e-16 -1.209844937e-16)
(4 -2.854859813e-16 1.346172101e-16)
(4 8.013516545e-16 -3.552371547e-17)
(4 -9.889317843e-16 -7.042579526e-17)
(4 1.076668345e-15 -1.245317238e-16)
(4 -1.558465574e-15 1.39348557e-16)
(4 1.194332484e-15 1.42558131e-16)
(4 -7.956103808e-16 1.828209537e-16)
(4 9.141468634e-16 8.236196434e-17)
(4 -9.413345595e-16 -2.653856075e-16)
(4 8.907659404e-16 -1.31027431e-16)
(4 -3.787451007e-16 4.286121079e-17)
(4 5.090709038e-17 1.618955224e-16)
(4 1.109091304e-16 -6.194222721e-17)
(4 -2.366708449e-16 -2.093966353e-17)
(4 7.681444502e-18 -5.834514868e-17)
(4 -3.656762444e-16 5.523359861e-17)
(4 8.898189833e-16 -2.662602251e-17)
(4 -1.072799331e-15 -8.08565852e-17)
(4 1.144752027e-15 -1.488694728e-16)
(4 -1.044375126e-15 1.886644761e-16)
(4 2.885776331e-15 2.041461877e-15)
(4 3.84727812e-14 1.83166424e-14)
(4 3.467773721e-13 1.570087357e-13)
(4 2.891569343e-12 1.250834743e-12)
(4 2.240079766e-11 9.296808495e-12)
(4 1.615313318e-10 6.404091043e-11)
(4.000000001 1.079018394e-09 4.066896205e-10)
(4.000000008 6.645388326e-09 2.368812848e-09)
(4.000000046 3.756033827e-08 1.259239759e-08)
(4.000000248 1.940210336e-07 6.083586569e-08)
(4.000001225 9.12975803e-07 2.662770308e-07)
(4.000005535 3.905177474e-06 1.053959455e-06)
(4.000022817 1.517002528e-05 3.769855827e-06)
(4.00008583 5.35232754e-05 1.218795147e-05)
(4.00029487 0.0001716788433 3.564655328e-05)
(4.000926628 0.0005013916914 9.443422208e-05)
(4.002669008 0.001335880484 0.0002269243681)
(4.00706327 0.003254160293 0.0004953069252)
(4.017219487 0.007264372298 0.0009831538045)
(4.038780412 0.01489609838 0.00177609443)
(4.080919507 0.02812458853 0.002920692779)
(4.156911385 0.04900539353 0.00436868962)
(4.283639325 0.07898087933 0.00593049127)
(4.479492389 0.1179948211 0.007272082751)
(4.760577364 0.1637469001 0.007980708606)
(5.135944352 0.2115055629 0.007693542721)
(5.603262906 0.2547664337 0.006244072549)
(6.146640903 0.2867031807 0.0037585407)
(6.73777275 0.3019657289 0.0006488905111)
(7.340457886 0.2981613133 -0.002504077133)
(7.917253694 0.2764507452 -0.005129752222)
(8.436237575 0.241064961 -0.006832909962)
(8.875916134 0.1979939226 -0.007481187386)
(9.227146763 0.1533907032 -0.007193207591)
(9.492075679 0.1122487807 -0.006251207952)
(9.681018388 0.07769359749 -0.004987021045)
(9.808591666 0.05093032143 -0.003687454698)
(9.890243408 0.03165949932 -0.002543676644)
(9.939843017 0.01868531346 -0.001644853445)
(9.968472505 0.01048291838 -0.001000768636)
(9.984193222 0.005596952861 -0.0005746262219)
(9.99241455 0.00284706329 -0.0003121590631)
(9.996513728 0.001381319088 -0.0001607860133)
(9.998464467 0.000639890075 -7.867455529e-05)
(9.999351418 0.0002833234408 -3.663374539e-05)
(9.999737107 0.0001200232821 -1.625812677e-05)
(9.999897669 4.869492329e-05 -6.887000397e-06)
(9.999961721 1.893895795e-05 -2.788336437e-06)
(9.999986229 7.067921798e-06 -1.080350696e-06)
(9.999995232 2.533320217e-06 -4.010582055e-07)
(9.99999841 8.72853286e-07 -1.428122332e-07)
)
;

boundaryField
{
    left
    {
        type            dirichlet;
        value           uniform (4 0 0);
    }
    right
    {
        type            dirichlet;
        value           uniform (4 0 0);
    }
    sides
    {
        type            empty;
    }
}


// ************************************************************************* //
