/*--------------------------------*- C++ -*----------------------------------*\
| =========                 |                                                 |
| \\      /  F ield         | foam-extend: Open Source CFD                    |
|  \\    /   O peration     | Version:     4.1                                |
|   \\  /    A nd           | Web:         http://www.foam-extend.org         |
|    \\/     M anipulation  |                                                 |
\*---------------------------------------------------------------------------*/
FoamFile
{
    version     2.0;
    format      ascii;
    class       cellScalarField;
    location    "45";
    object      T;
}
// * * * * * * * * * * * * * * * * * * * * * * * * * * * * * * * * * * * * * //

dimensions      [0 0 0 0 1 0 0];

internalField   nonuniform 
100
(
(4 -5.703630593e-17 1.624202108e-17)
(4 -7.406190906e-17 -1.184617415e-16)
(4 -7.844867197e-17 1.432835985e-16)
(4 2.9591678e-16 5.945857008e-17)
(4 -4.985008032e-17 -7.23171627e-17)
(4 -4.369705165e-16 -7.684326746e-18)
(4 3.408764025e-16 7.257304748e-17)
(4 -4.457408013e-16 -2.437245577e-17)
(4 9.044976294e-16 6.382752894e-17)
(4 -1.38520777e-15 -1.717073727e-16)
(4 1.228650616e-16 4.073147382e-17)
(4 3.663658458e-16 3.162966066e-17)
(4 4.702036397e-16 -1.537564473e-16)
(4 6.177055575e-17 3.374826596e-17)
(4 -1.366938122e-16 -1.073328169e-16)
(4 1.107831797e-16 -1.379596323e-16)
(4 4.882238263e-16 1.849532481e-17)
(4 -6.376479209e-16 6.023748601e-18)
(4 4.216656751e-16 -1.502634182e-16)
(4 -2.278370908e-16 2.430547295e-16)
(4 1.507549834e-16 -2.044946344e-17)
(4 3.413323324e-17 1.452728978e-16)
(4 -8.33782866e-17 7.843426542e-17)
(4 -1.209169923e-16 -2.993601412e-17)
(4 -1.333385767e-16 -3.712437657e-17)
(4 -1.006673469e-16 -8.488639908e-17)
(4 -8.712601089e-17 1.26180438e-16)
(4 1.056782616e-16 -5.882365647e-17)
(4 -4.263860091e-16 -3.10959311e-17)
(4 3.564487007e-16 -5.499542847e-17)
(4 -8.492200708e-17 1.207939121e-17)
(4 -7.095301854e-17 -3.296874497e-17)
(4 1.844096204e-16 -6.937431851e-17)
(4 -6.280648397e-16 3.276534961e-16)
(4 5.215449465e-16 1.266737522e-16)
(4 -5.223205096e-16 -1.167077176e-16)
(4 1.399545677e-15 -1.196135607e-16)
(4 -9.194238397e-16 1.401095172e-16)
(4 3.507103917e-16 6.554814591e-17)
(4 9.50334302e-18 -1.378749914e-16)
(4 -7.450419597e-18 8.850728741e-17)
(4 2.597936102e-17 1.058908098e-16)
(4 -1.00559831e-16 2.130806051e-16)
(4 -2.160192532e-16 -2.037545831e-17)
(4 -2.098820875e-16 -7.754604138e-17)
(4 8.385692938e-16 1.251461554e-16)
(4 -9.988426413e-16 5.098232881e-17)
(4 8.705025757e-16 5.067955574e-17)
(4 -7.955768101e-16 1.461683623e-16)
(4 1.50192474e-16 1.071358924e-16)
(4 7.583009875e-17 1.741072564e-16)
(4 2.463015514e-17 -9.747810543e-17)
(4 -1.573190261e-16 -1.457901748e-16)
(4 -8.36749756e-17 1.958188517e-16)
(4 -1.363019716e-16 -1.709693838e-17)
(4 -2.15060909e-17 -1.242536771e-17)
(4 -9.509235625e-17 5.885956967e-17)
(4 -6.415709543e-17 -1.043722992e-17)
(4 4.260982107e-16 5.124068978e-16)
(4 4.968361227e-15 1.724688126e-15)
(4 4.281520378e-14 1.969157866e-14)
(4 3.559998017e-13 1.486494876e-13)
(4 2.605088928e-12 1.0469657e-12)
(4 1.788228078e-11 6.891604406e-12)
(4 1.146501229e-10 4.22160458e-11)
(4.000000001 6.843448106e-10 2.398177093e-10)
(4.000000005 3.790442411e-09 1.25900582e-09)
(4.000000025 1.942485957e-08 6.090261151e-09)
(4.000000123 9.188673188e-08 2.708351715e-08)
(4.000000562 4.005368559e-07 1.105496857e-07)
(4.000002372 1.607346436e-06 4.13841579e-07)
(4.000009248 5.936559935e-06 1.420547592e-06)
(4.000033306 2.018635715e-05 4.47267213e-06)
(4.000110917 6.324495875e-05 1.292631862e-05)
(4.000341967 0.000182785904 3.43233851e-05)
(4.000977529 0.0004880042822 8.382541577e-05)
(4.002595343 0.001205473829 0.0001884953266)
(4.006412235 0.002759805869 0.0003906590103)
(4.014772649 0.005865990939 0.000746832821)
(4.031802868 0.01159599157 0.001317679188)
(4.064119427 0.02135670681 0.002145886723)
(4.121342514 0.03670826123 0.003224021454)
(4.21604751 0.05898230225 0.004462373388)
(4.362779699 0.08873852779 0.005673663624)
(4.575938627 0.1252036134 0.006591487649)
(4.86671567 0.1659181498 0.006928893958)
(5.239730244 0.2068132163 0.006464868644)
(5.690348992 0.2428187486 0.005128673992)
(6.203680313 0.2689031182 0.003046073336)
(6.755831485 0.2812472241 0.0005233602221)
(7.317314953 0.2781688559 -0.002029463263)
(7.857774296 0.2604874163 -0.004208816817)
(8.350774219 0.2312252472 -0.005720133738)
(8.777434764 0.1947823028 -0.006437882729)
(9.128144892 0.1558867395 -0.006408458531)
(9.40224422 0.1186531185 -0.005804970655)
(9.606141429 0.08598256442 -0.004858431675)
(9.750650472 0.05938007583 -0.003792164212)
(9.848325545 0.0391197233 -0.002777748668)
(9.911347291 0.02460874327 -0.001918125883)
)
;

boundaryField
{
    left
    {
        type            dirichlet;
        value           uniform (4 0 0);
    }
    right
    {
        type            dirichlet;
        value           uniform (4 0 0);
    }
    sides
    {
        type            empty;
    }
}


// ************************************************************************* //
