/*--------------------------------*- C++ -*----------------------------------*\
| =========                 |                                                 |
| \\      /  F ield         | foam-extend: Open Source CFD                    |
|  \\    /   O peration     | Version:     4.1                                |
|   \\  /    A nd           | Web:         http://www.foam-extend.org         |
|    \\/     M anipulation  |                                                 |
\*---------------------------------------------------------------------------*/
FoamFile
{
    version     2.0;
    format      ascii;
    class       cellScalarField;
    location    "29";
    object      T;
}
// * * * * * * * * * * * * * * * * * * * * * * * * * * * * * * * * * * * * * //

dimensions      [0 0 0 0 1 0 0];

internalField   nonuniform 
100
(
(4 -5.703630593e-17 1.624202108e-17)
(4 -1.281036951e-16 -3.608051571e-17)
(4 8.164036612e-17 -3.446743257e-17)
(4 -5.330160686e-17 7.639776585e-17)
(4 -1.435652518e-16 1.448862322e-17)
(4 -4.863016679e-16 1.51771872e-16)
(4 3.270492763e-16 3.01709431e-17)
(4 -4.178623489e-16 -1.22127956e-16)
(4 9.274130987e-16 9.606866563e-17)
(4 -1.380943784e-15 -3.168056017e-16)
(4 6.04555233e-17 -4.651323654e-17)
(4 3.988632214e-16 6.877305704e-17)
(4 4.07202341e-16 -6.310620533e-17)
(4 -2.043964905e-16 -1.222504533e-16)
(4 1.435819824e-16 -4.17466151e-18)
(4 -1.276155298e-16 -1.43977595e-16)
(4 1.770354081e-16 -6.924131269e-17)
(4 -9.884308434e-17 3.481486787e-16)
(4 -2.19951337e-16 3.250354628e-16)
(4 -2.0781943e-16 1.332664718e-16)
(4 -1.879493996e-16 1.786320783e-16)
(4 2.824169241e-16 2.589271624e-16)
(4 -4.202367489e-16 5.197591125e-17)
(4 6.102960856e-16 8.631121102e-17)
(4 -9.154132558e-16 -5.798249894e-17)
(4 9.720529651e-16 1.916738913e-16)
(4 -9.670133056e-16 2.397393644e-17)
(4 9.597017367e-16 -6.734756202e-17)
(4 -1.1226519e-15 -3.058663578e-17)
(4 8.616790569e-16 -1.10088947e-16)
(4 -2.104961021e-16 -4.512172442e-17)
(4 1.983411894e-16 -1.883645771e-16)
(4 1.048153742e-16 3.064622548e-16)
(4 5.0432043e-15 3.011618055e-15)
(4 7.351483573e-14 3.946523446e-14)
(4 8.219363733e-13 4.16954883e-13)
(4 8.542949583e-12 4.182394601e-12)
(4 8.242837058e-11 3.869456489e-11)
(4.000000001 7.329330761e-10 3.280899476e-10)
(4.000000006 5.966891796e-09 2.532204175e-09)
(4.000000048 4.417774068e-08 1.76455348e-08)
(4.000000334 2.949663183e-07 1.098520833e-07)
(4.000002091 1.758525649e-06 6.040913419e-07)
(4.000011695 9.275445787e-06 2.907603026e-06)
(4.000058024 4.30088313e-05 1.218237866e-05)
(4.000254514 0.0001748091445 4.434653005e-05)
(4.000986608 0.0006228901376 0.0001403414182)
(4.003386321 0.001950181305 0.0003869005026)
(4.010326822 0.005383725392 0.0009315634502)
(4.028105195 0.01315972587 0.001963605501)
(4.068605596 0.02860796964 0.003629133532)
(4.151006845 0.05555559353 0.005881425884)
(4.301366156 0.09679206755 0.008336728845)
(4.54842462 0.1519186824 0.01026156506)
(4.91537791 0.2156434174 0.01078560118)
(5.40985263 0.27785168 0.009293968063)
(6.016439071 0.326097327 0.005793658282)
(6.696059105 0.3497500289 0.001012943493)
(7.393642978 0.34386171 -0.003860042438)
(8.051519134 0.3108079582 -0.007663002145)
(8.623136164 0.2589904614 -0.009697292003)
(9.081928925 0.199480539 -0.009900827037)
(9.42293511 0.1423739982 -0.008722735002)
(9.658211326 0.09438740276 -0.00683162443)
(9.809238793 0.05825677739 -0.004835437333)
(9.899634596 0.03354932164 -0.00312567221)
(9.950190388 0.01806529281 -0.001858887947)
(9.97666358 0.009114137334 -0.001022806883)
(9.989668449 0.004316676095 -0.0005230085666)
(9.995673168 0.001922965743 -0.0002494719905)
(9.9982839 0.00080719661 -0.0001113607086)
(9.999354643 0.0003198486357 -4.665261372e-05)
(9.999769605 0.0001198434407 -1.838939561e-05)
(9.999921819 4.253167265e-05 -6.836348508e-06)
(9.999974752 1.431991746e-05 -2.402077199e-06)
(9.99999223 4.581189833e-06 -7.993427639e-07)
(9.999997719 1.394712865e-06 -2.523981867e-07)
(9.99999936 4.046680194e-07 -7.575725216e-08)
(9.999999828 1.120571916e-07 -2.165131849e-08)
(9.999999956 2.965565019e-08 -5.901577491e-09)
(9.999999989 7.510748857e-09 -1.536541535e-09)
(9.999999997 1.822762974e-09 -3.82695286e-10)
(9.999999999 4.244184527e-10 -9.13066226e-11)
(10 9.492909489e-11 -2.089761316e-11)
(10 2.041879239e-11 -4.593383699e-12)
(10 4.225751353e-12 -9.717548168e-13)
(10 8.479973077e-13 -1.9765818e-13)
(10 1.642418068e-13 -4.038620923e-14)
(10 2.923550591e-14 -6.159080298e-15)
(10 9.352474839e-15 -2.4145239e-15)
(10 -1.063685493e-15 5.892211383e-16)
(10 2.74450943e-16 -1.31662512e-16)
(10 8.295398571e-17 2.557999157e-17)
(10 -2.404429049e-16 2.374269858e-16)
(10 -3.092507005e-16 3.644449667e-16)
(10 -5.862802144e-16 -2.287315302e-17)
(10 -4.602439336e-16 -2.763479982e-16)
(10 1.727681289e-16 -3.485138722e-16)
(10 4.25244946e-16 -2.985163072e-16)
(10 -2.37395844e-15 3.872183269e-15)
)
;

boundaryField
{
    left
    {
        type            dirichlet;
        value           uniform (4 0 0);
    }
    right
    {
        type            dirichlet;
        value           uniform (4 0 0);
    }
    sides
    {
        type            empty;
    }
}


// ************************************************************************* //
