/*--------------------------------*- C++ -*----------------------------------*\
| =========                 |                                                 |
| \\      /  F ield         | foam-extend: Open Source CFD                    |
|  \\    /   O peration     | Version:     4.1                                |
|   \\  /    A nd           | Web:         http://www.foam-extend.org         |
|    \\/     M anipulation  |                                                 |
\*---------------------------------------------------------------------------*/
FoamFile
{
    version     2.0;
    format      ascii;
    class       cellScalarField;
    location    "5.3";
    object      T;
}
// * * * * * * * * * * * * * * * * * * * * * * * * * * * * * * * * * * * * * //

dimensions      [0 0 0 0 1 0 0];

internalField   nonuniform 
100
(
(4 1.516920994e-11 -2.433966281e-11)
(3.999999999 -3.66495939e-10 1.746624087e-09)
(4.000000041 4.853425853e-08 -1.597241581e-08)
(4.000000032 -6.180539234e-08 8.998921812e-07)
(4.00002359 3.463912131e-05 1.512956073e-05)
(4.000282293 0.0002410804234 0.0001709837993)
(4.004883305 0.006413858117 0.004307824485)
(4.068937226 0.07292080755 0.02621108634)
(4.42733517 0.3134835457 0.05809858849)
(5.410822448 0.6673551243 0.04678763392)
(6.940501864 0.8157113894 -0.01174633174)
(8.421038776 0.6290541562 -0.05012662104)
(9.375437798 0.3282347056 -0.04314089619)
(9.808391631 0.1227324165 -0.02122997676)
(9.95336738 0.03455331975 -0.007138591511)
(9.990757064 0.007645568597 -0.001789156428)
(9.99846871 0.001379292299 -0.0003539000717)
(9.999782866 0.000209222043 -5.761246572e-05)
(9.999973096 2.737401709e-05 -7.970907693e-06)
(9.999997035 3.154685357e-06 -9.611273519e-07)
(9.999999705 3.257919052e-07 -1.030431751e-07)
(9.999999973 3.0581184e-08 -9.98180833e-09)
(9.999999998 2.639996921e-09 -8.851909376e-10)
(10 2.1166088e-10 -7.264074553e-11)
(10 1.588797921e-11 -5.564514966e-12)
(10 1.126282636e-12 -4.012488639e-13)
(10 7.531957893e-14 -2.741461156e-14)
(10 3.320715522e-15 -1.074868946e-15)
(10 -1.519902787e-15 6.373206762e-16)
(10 6.166387142e-16 -1.081479073e-16)
(10 -1.342934629e-16 -1.938033304e-16)
(10 1.162377721e-15 -1.18754877e-15)
(10 5.252490089e-16 1.669109639e-17)
(10 -3.788664411e-16 6.09468574e-16)
(10 2.49101744e-16 -1.242763581e-16)
(10 -1.909134499e-16 -4.27980266e-16)
(10 -3.247789088e-17 5.455183347e-16)
(10 -2.210665958e-16 -1.978791954e-16)
(10 4.701779171e-16 -1.103876899e-16)
(10 -1.691450175e-16 2.422416683e-16)
(10 -2.634028157e-16 -1.46174328e-16)
(10 -2.917778155e-16 -7.814864669e-17)
(10 1.809411492e-16 3.069714283e-16)
(10 -2.493164752e-16 3.164076929e-16)
(10 -1.918093336e-16 5.74562336e-16)
(10 -1.639458123e-16 1.420049625e-16)
(10 -1.300682111e-16 2.757501345e-16)
(10 -2.409990996e-16 1.553484203e-17)
(10 -3.093905255e-16 6.489192761e-17)
(10 3.124138406e-16 -3.661027567e-16)
(10 3.185463172e-17 4.968406569e-17)
(10 -1.456091117e-16 -3.763257675e-16)
(10 4.130560516e-17 4.553089121e-16)
(10 -1.080810088e-16 -2.660973724e-18)
(10 4.231710706e-16 5.910967819e-16)
(10 -2.706746476e-16 1.292976294e-16)
(10 2.353702228e-16 1.995407413e-16)
(10 -2.666489959e-16 -2.68807183e-17)
(10 1.364853921e-16 1.749757891e-17)
(10 -2.188385902e-16 5.564619917e-16)
(10 -1.000862169e-15 5.078880463e-16)
(10 1.354184939e-16 -7.673887637e-17)
(10 4.236895964e-18 -2.400961834e-18)
(10 1.325615644e-19 -7.511991314e-20)
(10 4.147509994e-21 -2.350308642e-21)
(10 1.297649075e-22 -7.353510517e-23)
(10 4.060009799e-24 -2.300724081e-24)
(10 1.270272517e-25 -7.198373192e-26)
(10 3.974355599e-27 -2.252185607e-27)
(10 1.243473524e-28 -7.046508805e-29)
(10 3.890508449e-30 -2.204671151e-30)
(10 1.217239909e-31 -6.897848307e-32)
(10 3.808430225e-33 -2.158159109e-33)
(10 1.191559747e-34 -6.752324105e-35)
(10 3.728083609e-36 -2.112628333e-36)
(10 1.16642136e-37 -6.609870033e-38)
(10 3.649432069e-39 -2.068058123e-39)
(10 1.141813318e-40 -6.470421321e-41)
(10 3.572439844e-42 -2.024428212e-42)
(10 1.117724433e-43 -6.333914564e-44)
(10 3.497071927e-45 -1.981718763e-45)
(10 1.094143753e-46 -6.200287697e-47)
(10 3.42329405e-48 -1.939910357e-48)
(10 1.071060555e-49 -6.069479961e-50)
(10 3.351072669e-51 -1.898983985e-51)
(10 1.048464345e-52 -5.941431881e-53)
(10 3.280374945e-54 -1.858921038e-54)
(10 1.026344847e-55 -5.816085238e-56)
(10 3.211168734e-57 -1.819703301e-57)
(10 1.004692006e-58 -5.693383038e-59)
(10 3.143422569e-60 -1.781312942e-60)
(10 9.834959756e-62 -5.573269491e-62)
(10 3.077105648e-63 -1.743732507e-63)
(10 9.627471188e-65 -5.455689985e-65)
(10 3.012187818e-66 -1.706944907e-66)
(10 9.424360014e-68 -5.340591059e-68)
(10 2.948639562e-69 -1.670933417e-69)
(10 9.225533886e-71 -5.22792038e-71)
(10 2.886431987e-72 -1.635681663e-72)
(10 -1.636240044e-15 3.412875696e-15)
)
;

boundaryField
{
    left
    {
        type            dirichlet;
        value           uniform (4 0 0);
    }
    right
    {
        type            dirichlet;
        value           uniform (4 0 0);
    }
    sides
    {
        type            empty;
    }
}


// ************************************************************************* //
