/*--------------------------------*- C++ -*----------------------------------*\
| =========                 |                                                 |
| \\      /  F ield         | foam-extend: Open Source CFD                    |
|  \\    /   O peration     | Version:     4.1                                |
|   \\  /    A nd           | Web:         http://www.foam-extend.org         |
|    \\/     M anipulation  |                                                 |
\*---------------------------------------------------------------------------*/
FoamFile
{
    version     2.0;
    format      ascii;
    class       cellScalarField;
    location    "23";
    object      T;
}
// * * * * * * * * * * * * * * * * * * * * * * * * * * * * * * * * * * * * * //

dimensions      [0 0 0 0 1 0 0];

internalField   nonuniform 
100
(
(4 -5.703630593e-17 1.624202108e-17)
(4 2.266861092e-18 4.89231849e-17)
(4 -2.879820766e-16 8.981212864e-18)
(4 1.018028137e-16 6.968031259e-17)
(4 -5.461246437e-17 1.031165535e-16)
(4 -5.043267058e-16 5.417739384e-17)
(4 3.067063629e-16 -5.17550735e-17)
(4 -2.826037448e-16 8.925948485e-17)
(4 7.639245462e-16 -1.083080329e-16)
(4 -1.204291567e-15 1.844575496e-16)
(4 -4.436552731e-17 2.785339553e-16)
(4 7.769741646e-16 3.09537687e-18)
(4 -2.722925002e-16 3.916966523e-17)
(4 -3.99024352e-16 -2.373653714e-16)
(4 8.94286609e-16 6.77524977e-17)
(4 -7.026031335e-16 7.913986863e-17)
(4 7.553722278e-16 2.038636969e-16)
(4 -8.477685919e-16 7.17207142e-17)
(4 1.049078238e-15 -2.375522961e-16)
(4 -6.327284893e-16 4.39763225e-17)
(4 2.763131e-16 -1.494404462e-16)
(4 -1.211126364e-17 1.334096181e-16)
(4 3.487922535e-16 2.631449004e-16)
(4 2.78219179e-15 7.514382949e-16)
(4 2.084694272e-14 1.222451654e-14)
(4 2.984309709e-13 1.704135803e-13)
(4 3.940163597e-12 2.157837042e-12)
(4 4.749189459e-11 2.49733654e-11)
(4 5.25631488e-10 2.648188059e-10)
(4.000000005 5.309208365e-09 2.53980174e-09)
(4.000000049 4.838936755e-08 2.182860269e-08)
(4.000000413 3.953330124e-07 1.66883001e-07)
(4.00000313 2.863846661e-06 1.114906004e-06)
(4.00002091 1.805598582e-05 6.360743956e-06)
(4.000121163 9.731050388e-05 3.046695054e-05)
(4.000602422 0.0004436536049 0.0001216116752)
(4.002560246 0.001707083211 0.0004044125435)
(4.009318508 0.005560881084 0.001124146183)
(4.029207587 0.01542788174 0.00262312301)
(4.079426734 0.03671477379 0.005155363088)
(4.188970422 0.07549911541 0.008540440085)
(4.396815703 0.1351150509 0.01187667599)
(4.742091614 0.2118549411 0.0136719)
(5.247365405 0.2928548631 0.01253976965)
(5.902448947 0.3589622464 0.008104800919)
(6.658887103 0.3922330808 0.00143565996)
(7.440680723 0.3839618019 -0.005400838852)
(8.167193111 0.3382842458 -0.0103895796)
(8.776854185 0.2694000324 -0.01249364107)
(9.240704999 0.1947127917 -0.01190461403)
(9.56189617 0.128212886 -0.00962571996)
(9.765042084 0.07719352088 -0.006812315726)
(9.882802204 0.04264181335 -0.004294758774)
(9.945572092 0.02168302707 -0.002439947388)
(9.976433975 0.01018108764 -0.001259680945)
(9.990472118 0.00442752763 -0.0005948662327)
(9.996396721 0.00178842498 -0.000258339912)
(9.998723037 0.0006728562783 -0.0001036504634)
(9.999575136 0.0002364117451 -3.85753828e-05)
(9.999867035 7.777134547e-05 -1.336532341e-05)
(9.999960784 2.401266176e-05 -4.32523394e-06)
(9.999989079 6.975201214e-06 -1.311349555e-06)
(9.999997123 1.91053631e-06 -3.735341915e-07)
(9.999999282 4.945205781e-07 -1.002281917e-07)
(9.99999983 1.212147666e-07 -2.539640952e-08)
(9.999999962 2.819321836e-08 -6.091040989e-09)
(9.999999992 6.234376457e-09 -1.385817525e-09)
(9.999999998 1.313126939e-09 -2.99725041e-10)
(10 2.639153822e-10 -6.174664193e-11)
(10 5.069731448e-11 -1.213810929e-11)
(10 9.323603951e-12 -2.281736732e-12)
(10 1.642211193e-12 -4.113881758e-13)
(10 2.749284483e-13 -7.026288952e-14)
(10 4.652501548e-14 -1.155429938e-14)
(10 8.708769978e-15 -2.021105849e-15)
(10 -8.460805163e-16 -4.279955893e-16)
(10 1.013510634e-15 -5.7654882e-16)
(10 -7.848637347e-17 1.968052863e-16)
(10 1.544595716e-16 -6.849641818e-16)
(10 1.337441048e-16 -1.534844662e-16)
(10 -4.684322204e-17 3.335969266e-16)
(10 -1.517028438e-16 4.314719103e-16)
(10 -3.608678143e-16 5.164330949e-16)
(10 -4.140742785e-16 -1.770017702e-16)
(10 2.105575604e-16 2.051987954e-16)
(10 -2.974785612e-16 1.861005747e-16)
(10 4.976900673e-17 -3.858850376e-16)
(10 2.821510344e-16 1.382909626e-16)
(10 2.327778996e-16 -1.258821259e-16)
(10 1.863644111e-16 -1.043036936e-16)
(10 -6.975541345e-16 -1.049438556e-16)
(10 3.417768551e-16 2.212343746e-16)
(10 -2.276886688e-16 1.803488355e-16)
(10 -5.165932116e-16 -3.474166455e-16)
(10 4.831497816e-17 -5.479681781e-17)
(10 2.003837811e-16 1.62971974e-17)
(10 6.933775025e-17 -2.438025961e-16)
(10 3.164166275e-16 1.81231276e-17)
(10 -1.889455533e-16 -2.266153981e-16)
(10 -9.576454268e-16 4.422227317e-15)
)
;

boundaryField
{
    left
    {
        type            dirichlet;
        value           uniform (4 0 0);
    }
    right
    {
        type            dirichlet;
        value           uniform (4 0 0);
    }
    sides
    {
        type            empty;
    }
}


// ************************************************************************* //
