/*--------------------------------*- C++ -*----------------------------------*\
| =========                 |                                                 |
| \\      /  F ield         | foam-extend: Open Source CFD                    |
|  \\    /   O peration     | Version:     4.1                                |
|   \\  /    A nd           | Web:         http://www.foam-extend.org         |
|    \\/     M anipulation  |                                                 |
\*---------------------------------------------------------------------------*/
FoamFile
{
    version     2.0;
    format      ascii;
    class       cellScalarField;
    location    "47.7";
    object      T;
}
// * * * * * * * * * * * * * * * * * * * * * * * * * * * * * * * * * * * * * //

dimensions      [0 0 0 0 1 0 0];

internalField   nonuniform 
100
(
(4 -5.703630593e-17 1.624202108e-17)
(4 -1.084755679e-16 3.356981648e-16)
(4 1.323883846e-16 -1.438106172e-16)
(4 -1.824948922e-16 -1.83762713e-17)
(4 -2.399992967e-17 1.7584998e-18)
(4 -3.982813745e-16 1.284333173e-17)
(4 3.699578764e-16 1.21374511e-16)
(4 -4.3806285e-16 -9.180411712e-17)
(4 8.090427693e-16 3.808437986e-17)
(4 -1.353169494e-15 4.920271757e-18)
(4 1.290375282e-16 1.53796267e-16)
(4 2.429233229e-17 -1.923315616e-16)
(4 9.858931804e-16 7.465870774e-17)
(4 -7.563902609e-16 3.945376158e-16)
(4 3.010961361e-16 -1.260340668e-16)
(4 9.800115898e-18 -7.854867295e-18)
(4 -1.799708512e-17 -2.298211979e-17)
(4 -4.790719106e-18 2.806659062e-16)
(4 -1.91848565e-16 1.458266314e-16)
(4 1.759339048e-17 8.059522035e-17)
(4 -6.577783213e-17 -6.536333964e-17)
(4 -5.72902963e-17 6.829723915e-17)
(4 -1.385152726e-16 -4.376149909e-18)
(4 -1.103244588e-17 1.053614905e-16)
(4 2.227686722e-17 4.596973834e-17)
(4 3.038201254e-17 2.565472833e-17)
(4 6.853181119e-17 1.116938683e-16)
(4 -1.588476788e-17 9.69985993e-17)
(4 -6.464833088e-16 2.858245113e-16)
(4 4.713219222e-16 8.875447559e-18)
(4 -9.03772679e-17 2.408804191e-16)
(4 8.558953471e-17 -4.971682456e-17)
(4 -2.297319721e-16 -6.355276167e-17)
(4 -1.926001573e-16 3.505147601e-17)
(4 1.701782699e-16 1.867139057e-16)
(4 -4.223238468e-16 9.557590687e-17)
(4 8.407120825e-16 -2.375116334e-18)
(4 -7.245892238e-16 5.919062486e-17)
(4 2.335240968e-16 -6.563745548e-17)
(4 -1.457614138e-16 -9.304030071e-17)
(4 1.430269454e-16 -1.358402563e-16)
(4 -9.730597429e-18 -3.398336106e-17)
(4 -1.989689347e-17 6.543148422e-17)
(4 -2.451075294e-17 4.612509206e-17)
(4 -2.512673176e-16 2.113893672e-17)
(4 6.603282784e-16 1.432704088e-17)
(4 -8.985658956e-16 -2.548289128e-16)
(4 9.334842644e-16 3.435007039e-17)
(4 -8.530947997e-16 -2.529808134e-16)
(4 5.101190639e-16 3.510656745e-17)
(4 -4.034855589e-18 2.137235262e-16)
(4 -2.315556565e-16 2.88550186e-17)
(4 -4.12444351e-17 -6.396057311e-17)
(4 4.319539429e-17 -5.863879813e-17)
(4 -1.53307677e-16 2.795883936e-16)
(4 -2.241753969e-16 -5.499265794e-17)
(4 1.274992563e-18 -1.155334149e-16)
(4 1.132854028e-16 -1.434421065e-16)
(4 -5.803039033e-17 7.329380388e-17)
(4 -1.098309162e-16 -6.138595744e-17)
(4 1.050689032e-16 1.296138472e-16)
(4 -5.698449205e-18 7.146206858e-17)
(4 -1.65943143e-17 1.234350425e-16)
(4 1.454621823e-15 8.020711597e-16)
(4 1.471994884e-14 6.983000018e-15)
(4 1.253315415e-13 5.11110188e-14)
(4 8.889739643e-13 3.543604941e-13)
(4 6.014030399e-12 2.299390498e-12)
(4 3.812383566e-11 1.394740039e-11)
(4 2.257244232e-10 7.879786658e-11)
(4.000000002 1.245497364e-09 4.133687294e-10)
(4.000000008 6.38795644e-09 2.008341688e-09)
(4.000000041 3.038978923e-08 9.018106809e-09)
(4.000000187 1.338950755e-07 3.737109613e-08)
(4.000000798 5.45826969e-07 1.427994322e-07)
(4.000003164 2.057933092e-06 5.029850469e-07)
(4.000011641 7.177110104e-06 1.633388928e-06)
(4.000039759 2.316610555e-05 4.892738647e-06)
(4.000126201 6.926780683e-05 1.352919355e-05)
(4.000372727 0.0001920809441 3.456558445e-05)
(4.00102575 0.0004946387779 8.167508861e-05)
(4.002634603 0.001184596193 0.0001786584406)
(4.006326513 0.002642335585 0.0003620937332)
(4.014229334 0.005498097812 0.0006804329402)
(4.030033236 0.01068852615 0.00118606933)
(4.059603238 0.01944341233 0.001917919743)
(4.111446067 0.03314618625 0.002875766463)
(4.19673823 0.05303262137 0.003993471106)
(4.328603347 0.07974907476 0.00512358327)
(4.520448604 0.1128722175 0.006046820193)
(4.783447758 0.1505614467 0.006513394763)
(5.123623299 0.1895277897 0.006310010477)
(5.539287067 0.2254303621 0.00533207575)
(6.019682106 0.2536657165 0.003633297133)
(6.545434914 0.2703538961 0.001429921898)
(7.090921643 0.2732244633 -0.0009463294263)
(7.62805619 0.262120523 -0.003131800823)
(8.130560661 0.2389681508 -0.00482151606)
(8.57765791 0.2072455067 -0.005836121863)
(8.956364609 0.171147747 -0.006146048363)
)
;

boundaryField
{
    left
    {
        type            dirichlet;
        value           uniform (4 0 0);
    }
    right
    {
        type            dirichlet;
        value           uniform (4 0 0);
    }
    sides
    {
        type            empty;
    }
}


// ************************************************************************* //
