/*--------------------------------*- C++ -*----------------------------------*\
| =========                 |                                                 |
| \\      /  F ield         | foam-extend: Open Source CFD                    |
|  \\    /   O peration     | Version:     4.1                                |
|   \\  /    A nd           | Web:         http://www.foam-extend.org         |
|    \\/     M anipulation  |                                                 |
\*---------------------------------------------------------------------------*/
FoamFile
{
    version     2.0;
    format      ascii;
    class       cellScalarField;
    location    "39.1";
    object      T;
}
// * * * * * * * * * * * * * * * * * * * * * * * * * * * * * * * * * * * * * //

dimensions      [0 0 0 0 1 0 0];

internalField   nonuniform 
100
(
(4 -5.703630593e-17 1.624202108e-17)
(4 -1.834878464e-17 1.595406558e-16)
(4 -2.130705402e-16 -7.846334438e-17)
(4 1.328101292e-17 -1.570240742e-16)
(4 -7.556983275e-17 -1.091073931e-16)
(4 -2.760742184e-16 -8.096923917e-17)
(4 4.234518787e-16 1.492334208e-16)
(4 -6.178059254e-16 2.704589432e-16)
(4 8.516586629e-16 -4.518092959e-17)
(4 -1.431646534e-15 1.131742867e-16)
(4 1.530349733e-17 -4.49257089e-17)
(4 3.804740623e-16 -1.410548034e-16)
(4 6.148760166e-16 -3.079119528e-17)
(4 1.608585823e-16 -3.875115657e-18)
(4 -8.384505773e-17 2.673226504e-16)
(4 -7.11463376e-17 8.122207626e-17)
(4 4.308004223e-17 -2.811894908e-17)
(4 -4.471864541e-17 1.891843931e-16)
(4 -1.595297286e-16 -5.371567464e-17)
(4 -1.361113777e-16 -1.221171988e-17)
(4 7.625338334e-17 -3.876227402e-18)
(4 -2.470798504e-16 8.087423537e-17)
(4 1.191138553e-16 -1.378014142e-16)
(4 -2.977349763e-17 2.431842554e-16)
(4 1.700631693e-17 1.903557151e-16)
(4 -2.461759467e-16 1.271175716e-16)
(4 3.30454505e-16 1.163588467e-16)
(4 -2.01742146e-16 -4.34052971e-16)
(4 2.11306669e-16 3.638798215e-17)
(4 -4.42861011e-16 1.083168626e-16)
(4 8.669144232e-16 -8.268256059e-17)
(4 -9.366933207e-16 -8.021002939e-17)
(4 1.012010329e-15 2.393869282e-17)
(4 -1.593278127e-15 2.275025959e-16)
(4 1.286149615e-15 6.243735449e-17)
(4 -7.095455976e-16 3.460606825e-16)
(4 1.075766828e-15 8.379724169e-17)
(4 -1.30776635e-15 -8.111895772e-17)
(4 8.569336215e-16 4.290298502e-17)
(4 -5.318502397e-16 2.2785222e-16)
(4 2.704374485e-16 1.221811033e-16)
(4 -4.147134045e-18 -1.050830424e-16)
(4 -5.352366335e-17 3.49076849e-17)
(4 1.558115904e-16 -1.558205879e-16)
(4 -3.25167436e-16 1.440459087e-16)
(4 8.910211747e-16 1.408542225e-17)
(4 -1.082601964e-15 -1.062435554e-16)
(4 9.334724685e-16 1.107690401e-16)
(4 -1.082044289e-15 2.843904913e-16)
(4 1.430586237e-15 1.284824031e-15)
(4 2.652193656e-14 1.276334592e-14)
(4 2.420946262e-13 1.105099197e-13)
(4 2.043153404e-12 8.882792828e-13)
(4 1.597484735e-11 6.668737077e-12)
(4 1.16364044e-10 4.644005117e-11)
(4.000000001 7.858793949e-10 2.984181367e-10)
(4.000000006 4.897740841e-09 1.760519599e-09)
(4.000000034 2.803727884e-08 9.488054072e-09)
(4.000000186 1.468039399e-07 4.651034068e-08)
(4.000000933 7.006863129e-07 2.066976162e-07)
(4.000004274 3.041583378e-06 8.31094316e-07)
(4.000017869 1.199455412e-05 3.020769255e-06)
(4.00006819 4.296920473e-05 9.926023081e-06)
(4.000237663 0.0001399499524 2.950934604e-05)
(4.000757631 0.0004150101829 7.946780098e-05)
(4.002213402 0.001122614366 0.000194122633)
(4.005939957 0.002776002042 0.000430745781)
(4.014680882 0.006289571484 0.0008692739427)
(4.033509584 0.01308744256 0.001596840264)
(4.070841863 0.02506925116 0.00267097391)
(4.139127502 0.0443082419 0.004065758556)
(4.254609363 0.07242042431 0.005621527658)
(4.435563343 0.1097021167 0.007031085575)
(4.698826806 0.1543315377 0.007890993074)
(5.055150822 0.2020467564 0.007819406722)
(5.504683474 0.2466279217 0.006602753072)
(6.034267549 0.2812071996 0.004306169777)
(6.617886796 0.300034922 0.001288967351)
(7.220554624 0.3000642533 -0.00189188123)
(7.80465008 0.2817476032 -0.004652616266)
(8.336787257 0.2487646343 -0.006555232916)
(8.79319028 0.2068487043 -0.007413052284)
(9.162241054 0.1622117242 -0.007298303049)
(9.443976837 0.1201390885 -0.006467240309)
(9.647306761 0.08414840629 -0.005248345235)
(9.786215658 0.05581290013 -0.003941695287)
(9.876160572 0.0350994426 -0.002758971813)
(9.931428434 0.02095443234 -0.00180890608)
(9.963693636 0.011889925 -0.001115259886)
(9.981610558 0.006419669422 -0.0006486068297)
(9.991084868 0.00330191217 -0.000356746843)
(9.99586084 0.001619621622 -0.0001859856344)
(9.99815841 0.0007584383969 -9.208503064e-05)
(9.999214301 0.000339420027 -4.337601854e-05)
(9.999678339 0.0001453133382 -1.946940674e-05)
(9.999873549 5.957362737e-05 -8.339391287e-06)
(9.999952232 2.34100584e-05 -3.413390176e-06)
(9.999982647 8.825924545e-06 -1.336785091e-06)
(9.999993934 3.195412505e-06 -5.015151172e-07)
(9.999997958 1.111970025e-06 -1.804467083e-07)
)
;

boundaryField
{
    left
    {
        type            dirichlet;
        value           uniform (4 0 0);
    }
    right
    {
        type            dirichlet;
        value           uniform (4 0 0);
    }
    sides
    {
        type            empty;
    }
}


// ************************************************************************* //
