/*--------------------------------*- C++ -*----------------------------------*\
| =========                 |                                                 |
| \\      /  F ield         | foam-extend: Open Source CFD                    |
|  \\    /   O peration     | Version:     4.1                                |
|   \\  /    A nd           | Web:         http://www.foam-extend.org         |
|    \\/     M anipulation  |                                                 |
\*---------------------------------------------------------------------------*/
FoamFile
{
    version     2.0;
    format      ascii;
    class       cellScalarField;
    location    "13.7";
    object      T;
}
// * * * * * * * * * * * * * * * * * * * * * * * * * * * * * * * * * * * * * //

dimensions      [0 0 0 0 1 0 0];

internalField   nonuniform 
100
(
(4 -5.703630593e-17 1.624202108e-17)
(4 -2.755445533e-16 -1.04253421e-16)
(4 2.013262356e-16 -2.645684916e-17)
(4 -6.581913554e-17 2.089660445e-16)
(4 -1.899630909e-16 -4.018941134e-17)
(4 -3.399527878e-16 -2.5857684e-17)
(4 3.874639117e-16 1.796053777e-16)
(4 -5.016108921e-16 -8.374250243e-17)
(4 8.170945833e-16 -6.058654944e-17)
(4 -1.580695127e-15 3.609207806e-16)
(4 3.755848152e-14 3.164939051e-14)
(4 7.48161698e-13 3.974905222e-13)
(4 1.386965767e-11 1.048249724e-11)
(4 2.980369728e-10 1.78171813e-10)
(4.000000004 4.363677702e-09 2.58919369e-09)
(4.000000057 6.49590217e-08 3.780260762e-08)
(4.000000758 8.299081368e-07 4.313736987e-07)
(4.00000841 8.757631269e-06 4.298312941e-06)
(4.000081887 8.252512834e-05 3.742815655e-05)
(4.000681537 0.0006421829768 0.0002482776707)
(4.004485646 0.003764080424 0.0011762787)
(4.022541969 0.016255353 0.003979759288)
(4.086932529 0.05247496913 0.009769376656)
(4.262753559 0.1296382528 0.01757970057)
(4.638229721 0.2508037168 0.022989465)
(5.277753185 0.38776479 0.02057884428)
(6.161576593 0.4875764601 0.009186109304)
(7.167659313 0.5062331098 -0.005960149346)
(8.123537911 0.4398272848 -0.01730188001)
(8.890529629 0.323593157 -0.02080366407)
(9.415846929 0.2037834652 -0.0177234403)
(9.725964038 0.1109332863 -0.01194316269)
(9.885189317 0.05267738924 -0.006668033354)
(9.956889848 0.02200532972 -0.003167153882)
(9.985430812 0.008150900844 -0.001302965227)
(9.995547969 0.002696966649 -0.0004706451113)
(9.998763948 0.0008027090332 -0.0001509183602)
(9.999686688 0.0002163156868 -4.336518072e-05)
(9.999927145 5.310352702e-05 -1.125733435e-05)
(9.999984386 1.194410533e-05 -2.659349126e-06)
(9.999996902 2.474608668e-06 -5.754311466e-07)
(9.999999428 4.746300054e-07 -1.14724734e-07)
(9.999999902 8.466917616e-08 -2.118875752e-08)
(9.999999984 1.41092126e-08 -3.64314958e-09)
(9.999999998 2.20516781e-09 -5.857757672e-10)
(10 3.244665973e-10 -8.844453872e-11)
(10 4.510197685e-11 -1.258732501e-11)
(10 5.943107412e-12 -1.694391185e-12)
(10 7.449568988e-13 -2.159678494e-13)
(10 8.800642809e-14 -2.721287148e-14)
(10 9.718382792e-15 -3.718251956e-15)
(10 -4.204464364e-16 -5.840097784e-16)
(10 1.381678435e-15 -6.352611234e-16)
(10 -1.501400299e-16 2.263271926e-16)
(10 -1.716655412e-16 -6.637665965e-16)
(10 1.161556595e-16 -6.355636373e-16)
(10 -3.158659575e-16 -1.647484137e-16)
(10 3.273810976e-16 -2.801674908e-16)
(10 2.044495128e-16 -5.701880317e-17)
(10 -1.074481037e-16 -3.469756471e-16)
(10 2.418448443e-16 2.290501554e-16)
(10 -3.638048415e-17 3.922256955e-18)
(10 -1.384124061e-17 1.076371647e-16)
(10 -2.882209412e-16 -4.921486163e-16)
(10 1.645620697e-16 2.713570566e-17)
(10 1.890041787e-16 -1.050195251e-16)
(10 -2.177333534e-16 4.073048571e-16)
(10 -3.541779764e-17 -3.176763364e-16)
(10 6.859571198e-16 -3.526975178e-16)
(10 -7.246817413e-17 -3.425857373e-16)
(10 1.360463969e-16 -2.055455889e-16)
(10 3.687756193e-17 1.918396484e-16)
(10 2.076824856e-17 2.156998563e-16)
(10 9.527796232e-17 1.119521822e-16)
(10 -2.645488291e-16 -1.406315616e-18)
(10 1.113431856e-16 1.010208468e-17)
(10 4.41560344e-16 2.092698537e-16)
(10 -3.827677743e-16 3.474900387e-16)
(10 -1.940967256e-16 -1.936844211e-16)
(10 -1.764067803e-16 9.242769733e-17)
(10 -1.125254144e-16 4.97933838e-17)
(10 -3.401825681e-17 1.29353742e-16)
(10 -1.27811867e-16 -1.264782562e-16)
(10 3.556949267e-16 -3.497850165e-16)
(10 -1.424328333e-16 5.04546352e-16)
(10 -1.913434812e-16 -3.00508803e-16)
(10 2.249991296e-16 -4.758886358e-16)
(10 1.18482191e-16 -2.556940444e-16)
(10 1.475752753e-16 -4.681115533e-16)
(10 6.788737446e-16 -1.669068785e-16)
(10 3.19070367e-16 -7.933838937e-18)
(10 -1.534230751e-16 3.681786726e-16)
(10 -9.305757902e-17 7.573616813e-16)
(10 -3.676682528e-16 4.290653128e-16)
(10 -1.097104788e-16 1.163175346e-16)
(10 3.439931931e-17 -5.2317586e-16)
(10 1.015774091e-17 -4.881645396e-16)
(10 4.883127396e-16 -2.558578728e-16)
(10 1.398710658e-16 -2.825855182e-16)
(10 -1.972162105e-15 3.698006924e-15)
)
;

boundaryField
{
    left
    {
        type            dirichlet;
        value           uniform (4 0 0);
    }
    right
    {
        type            dirichlet;
        value           uniform (4 0 0);
    }
    sides
    {
        type            empty;
    }
}


// ************************************************************************* //
