/*--------------------------------*- C++ -*----------------------------------*\
| =========                 |                                                 |
| \\      /  F ield         | foam-extend: Open Source CFD                    |
|  \\    /   O peration     | Version:     4.1                                |
|   \\  /    A nd           | Web:         http://www.foam-extend.org         |
|    \\/     M anipulation  |                                                 |
\*---------------------------------------------------------------------------*/
FoamFile
{
    version     2.0;
    format      ascii;
    class       cellScalarField;
    location    "2.2";
    object      T;
}
// * * * * * * * * * * * * * * * * * * * * * * * * * * * * * * * * * * * * * //

dimensions      [0 0 0 0 1 0 0];

internalField   nonuniform 10((4.000149253 0.0002789959169 4.745020186e-05) (4.000129087 -0.002005600519 0.002247962381) (4.089344751 0.1490427771 0.08814422318) (5.090456053 0.9165434748 0.1266945928) (7.381513711 1.20557584 -0.07413432328) (9.204433026 0.5752244724 -0.103077165) (9.854167101 0.1339021647 -0.03354261374) (9.981706925 0.01924814315 -0.005667305876) (9.998248035 0.00200925622 -0.0006503120094) (9.99986204 0.0001678865707 -5.784752518e-05));

boundaryField
{
    left
    {
        type            dirichlet;
        value           uniform (4 0 0);
    }
    right
    {
        type            dirichlet;
        value           uniform (4 0 0);
    }
    sides
    {
        type            empty;
    }
}


// ************************************************************************* //
