/*--------------------------------*- C++ -*----------------------------------*\
| =========                 |                                                 |
| \\      /  F ield         | foam-extend: Open Source CFD                    |
|  \\    /   O peration     | Version:     4.1                                |
|   \\  /    A nd           | Web:         http://www.foam-extend.org         |
|    \\/     M anipulation  |                                                 |
\*---------------------------------------------------------------------------*/
FoamFile
{
    version     2.0;
    format      ascii;
    class       cellScalarField;
    location    "26";
    object      T;
}
// * * * * * * * * * * * * * * * * * * * * * * * * * * * * * * * * * * * * * //

dimensions      [0 0 0 0 1 0 0];

internalField   nonuniform 
100
(
(4 -5.703630593e-17 1.624202108e-17)
(4 -1.712246934e-16 -5.883660159e-17)
(4 1.36735079e-16 7.588475723e-17)
(4 -1.71030109e-16 2.075971173e-16)
(4 2.408637405e-17 1.05727542e-16)
(4 -1.518824309e-16 4.784008792e-17)
(4 7.029137828e-17 1.960238919e-16)
(4 -3.112234203e-16 9.491135929e-17)
(4 7.653127435e-16 -2.435363947e-16)
(4 -1.192847535e-15 4.314880662e-17)
(4 1.22144127e-16 9.132907894e-17)
(4 1.653748725e-15 6.854496797e-17)
(4 -1.88501406e-15 1.068385064e-16)
(4 1.422168164e-15 -3.384909675e-16)
(4 -6.563175452e-16 1.554655726e-16)
(4 2.293694518e-16 -2.621148876e-16)
(4 1.153937558e-16 -1.117263955e-16)
(4 1.179127849e-16 1.481901075e-16)
(4 7.202436042e-17 -8.644057623e-17)
(4 -1.116172322e-16 -2.871343109e-18)
(4 -1.677394114e-18 2.003436085e-16)
(4 5.185633627e-17 -1.782225734e-17)
(4 -2.366473915e-16 -7.943091672e-17)
(4 3.60095808e-17 1.380772968e-16)
(4 -3.211915984e-17 2.399872806e-17)
(4 -2.539597109e-16 5.101863599e-17)
(4 3.146408406e-16 2.282921367e-16)
(4 -2.983517878e-16 -2.473955318e-16)
(4 3.434189599e-15 1.995528127e-15)
(4 4.477316018e-14 2.397396155e-14)
(4 5.414993993e-13 2.90163175e-13)
(4 6.266138775e-12 3.235172729e-12)
(4 6.70461046e-11 3.32462953e-11)
(4.000000001 6.602172633e-10 3.125975698e-10)
(4.000000006 5.936848512e-09 2.666702746e-09)
(4.000000051 4.839884334e-08 2.048627234e-08)
(4.000000386 3.548248335e-07 1.401683339e-07)
(4.000002641 2.311636412e-06 8.411227317e-07)
(4.000016003 1.320301168e-05 4.36290543e-06)
(4.000085076 6.541331533e-05 1.937794625e-05)
(4.000394444 0.0002796067358 7.342315114e-05)
(4.001592542 0.001030484125 0.0002374159841)
(4.005610392 0.003283196387 0.0006568260646)
(4.017320819 0.009083879937 0.001559778148)
(4.047127629 0.021942999 0.003188361773)
(4.113732664 0.04653868696 0.005617907552)
(4.245091449 0.08714424921 0.008522319322)
(4.474928023 0.1448377048 0.01106423096)
(4.833459375 0.2147455544 0.01210204046)
(5.334415535 0.2853711472 0.01071824287)
(5.964108231 0.3413889113 0.006788760942)
(6.679076515 0.3691715139 0.001193771967)
(7.415177118 0.3622592221 -0.004523306696)
(8.104850455 0.3237389379 -0.008855044651)
(8.694888199 0.2643844526 -0.01095421945)
(9.157312408 0.1979443262 -0.01084499366)
(9.490315808 0.1362841019 -0.009195254435)
(9.711300982 0.08653800424 -0.006882330922)
(9.846815437 0.05082002535 -0.004624898087)
(9.923811051 0.02767475426 -0.002821073271)
(9.964446685 0.01401072514 -0.001574212442)
(9.984416252 0.006610417332 -0.0008084502108)
(9.993575735 0.002913478319 -0.0003839682778)
(9.997505779 0.001202250816 -0.0001693447575)
(9.999086652 0.000465510305 -6.960388437e-05)
(9.999684081 0.0001694851877 -2.67461644e-05)
(9.999896626 5.814175012e-05 -9.636226857e-06)
(9.999967951 1.88301493e-05 -3.263762398e-06)
(9.999990572 5.768395762e-06 -1.041744056e-06)
(9.999997364 1.674519374e-06 -3.140722678e-07)
(9.999999299 4.614558586e-07 -8.96312596e-08)
(9.999999822 1.209259765e-07 -2.426240281e-08)
(9.999999957 3.01840468e-08 -6.241503287e-09)
(9.99999999 7.187826268e-09 -1.528694344e-09)
(9.999999998 1.635497904e-09 -3.570974971e-10)
(10 3.560995023e-10 -7.969026978e-11)
(10 7.429977037e-11 -1.701525656e-11)
(10 1.488179042e-11 -3.483087655e-12)
(10 2.859589157e-12 -6.838494745e-13)
(10 5.26667752e-13 -1.285427164e-13)
(10 9.659587164e-14 -2.246123968e-14)
(10 1.67325693e-14 -4.039091218e-15)
(10 4.435862927e-15 -1.671606907e-15)
(10 -7.474610778e-16 2.868253386e-16)
(10 -2.241700182e-16 -5.779947258e-17)
(10 4.303031132e-17 -2.369400645e-16)
(10 6.195907395e-17 -2.865356835e-17)
(10 -3.816001736e-16 -6.123307179e-17)
(10 2.544525303e-16 -3.025819028e-19)
(10 -4.974751643e-17 1.409507789e-16)
(10 2.249543507e-16 -5.703510065e-16)
(10 5.157827884e-16 -4.123952579e-16)
(10 -1.516693481e-16 -2.954011408e-16)
(10 4.275483657e-16 -9.783172685e-17)
(10 -5.939295691e-17 1.238156587e-16)
(10 -1.754115119e-16 1.668679779e-16)
(10 2.835262298e-16 2.901963781e-16)
(10 -3.058115447e-16 8.461558659e-16)
(10 4.861482833e-17 -3.496070475e-17)
(10 -7.80449066e-16 3.881268617e-15)
)
;

boundaryField
{
    left
    {
        type            dirichlet;
        value           uniform (4 0 0);
    }
    right
    {
        type            dirichlet;
        value           uniform (4 0 0);
    }
    sides
    {
        type            empty;
    }
}


// ************************************************************************* //
