/*--------------------------------*- C++ -*----------------------------------*\
| =========                 |                                                 |
| \\      /  F ield         | foam-extend: Open Source CFD                    |
|  \\    /   O peration     | Version:     4.1                                |
|   \\  /    A nd           | Web:         http://www.foam-extend.org         |
|    \\/     M anipulation  |                                                 |
\*---------------------------------------------------------------------------*/
FoamFile
{
    version     2.0;
    format      ascii;
    class       cellScalarField;
    location    "28.7";
    object      T;
}
// * * * * * * * * * * * * * * * * * * * * * * * * * * * * * * * * * * * * * //

dimensions      [0 0 0 0 1 0 0];

internalField   nonuniform 
100
(
(4 -5.703630593e-17 1.624202108e-17)
(4 -1.635462575e-16 -1.220604769e-17)
(4 -6.19716683e-17 -7.689619275e-18)
(4 -7.19429952e-17 3.40464812e-16)
(4 -1.087506943e-16 8.742456473e-18)
(4 -4.37116384e-16 4.959870555e-17)
(4 3.071466818e-16 -1.550173132e-17)
(4 -4.68282855e-16 -2.092582596e-16)
(4 7.946856993e-16 7.035477438e-17)
(4 -1.29297414e-15 -8.312608299e-17)
(4 1.733878305e-16 -1.792099264e-16)
(4 4.382926354e-16 3.623002705e-17)
(4 5.005219629e-16 -9.479305767e-17)
(4 -3.411161192e-17 1.518638317e-16)
(4 -1.99247912e-16 2.316072084e-16)
(4 -1.428582269e-16 2.66076691e-16)
(4 -6.941140325e-17 2.757889946e-17)
(4 -6.937705497e-17 1.107660494e-16)
(4 -1.390526314e-16 8.864003691e-17)
(4 -2.046176868e-16 -2.006531011e-17)
(4 -2.534698403e-16 -1.865112472e-16)
(4 4.982812112e-16 6.752750716e-17)
(4 -8.722925281e-16 -2.872164897e-16)
(4 1.139895258e-15 -2.162361143e-16)
(4 -8.728022741e-16 -2.179808719e-16)
(4 9.847636308e-16 6.317299687e-17)
(4 -1.108451302e-15 -2.926167804e-17)
(4 9.440838576e-16 -6.400229092e-17)
(4 -9.093009999e-16 2.127495545e-16)
(4 5.426943832e-16 -1.578844233e-17)
(4 7.772915711e-19 2.177984759e-16)
(4 1.349798285e-16 -9.904253301e-17)
(4 6.208479916e-16 9.0975062e-16)
(4 1.861690257e-14 1.127506628e-14)
(4 2.399259592e-13 1.236062725e-13)
(4 2.593893324e-12 1.300571847e-12)
(4 2.626078401e-11 1.266389895e-11)
(4 2.45815158e-10 1.133643889e-10)
(4.000000002 2.112993723e-09 9.266733496e-10)
(4.000000018 1.65712423e-08 6.867270132e-09)
(4.00000013 1.176919324e-07 4.570497948e-08)
(4.000000865 7.498113348e-07 2.700405082e-07)
(4.000005168 4.241664422e-06 1.400895236e-06)
(4.000027428 2.112882703e-05 6.331725662e-06)
(4.000128711 9.222430506e-05 2.483843888e-05)
(4.000533002 0.0003522433667 8.452071002e-05)
(4.001949383 0.001178782005 0.000249851433)
(4.006314547 0.003466868768 0.0006432030833)
(4.018190572 0.008996901161 0.001445738799)
(4.046830066 0.02069320844 0.002843173991)
(4.108313051 0.04237577929 0.004896291607)
(4.226321655 0.07760783602 0.007374902567)
(4.429680772 0.1276614576 0.009668502158)
(4.745579966 0.1893891344 0.01090172706)
(5.189620341 0.2543704828 0.01027980152)
(5.756444404 0.3104362385 0.007512255887)
(6.415770771 0.3454279221 0.003054968488)
(7.116855688 0.3515780321 -0.002011450977)
(7.800411898 0.3283124634 -0.006421044604)
(8.413266128 0.2821018577 -0.009230311122)
(8.919909567 0.2236482102 -0.01012134302)
(9.307110073 0.1640198467 -0.009383308158)
(9.581350934 0.111552074 -0.007654318109)
(9.761785202 0.07052466599 -0.005607759032)
(9.872315664 0.04154089 -0.003735965273)
(9.93549396 0.02284715946 -0.002282530124)
(9.969260628 0.01175776599 -0.001286885222)
(9.986169774 0.005673291343 -0.00067282279)
(9.994118853 0.002571661604 -0.0003275295532)
(9.997633597 0.001097193114 -0.0001489645213)
(9.999097951 0.0004414056263 -6.349021293e-05)
(9.999673845 0.000167744237 -2.542692178e-05)
(9.999888 6.03194449e-05 -9.592001646e-06)
(9.999963427 2.055837294e-05 -3.416128422e-06)
(9.999988629 6.651828969e-06 -1.151014338e-06)
(9.999996629 2.046406628e-06 -3.676235408e-07)
(9.999999046 5.995120877e-07 -1.115082646e-07)
(9.999999742 1.674924981e-07 -3.217763184e-08)
(9.999999933 4.468900321e-08 -8.848477123e-09)
(9.999999983 1.140278623e-08 -2.322417577e-09)
(9.999999996 2.786147796e-09 -5.82675134e-10)
(9.999999999 6.527382477e-10 -1.399463424e-10)
(10 1.468138263e-10 -3.222219377e-11)
(10 3.173615237e-11 -7.120276621e-12)
(10 6.602139695e-12 -1.51296884e-12)
(10 1.321921393e-12 -3.076874702e-13)
(10 2.577186394e-13 -6.082197985e-14)
(10 4.607878899e-14 -1.153158741e-14)
(10 1.250513932e-14 -1.440088664e-15)
(10 -6.311842404e-16 -1.638227409e-16)
(10 4.674847732e-16 -4.394830976e-16)
(10 2.423800182e-16 5.198824547e-18)
(10 1.646603209e-16 -5.563489445e-16)
(10 -2.236153767e-16 -5.790541299e-16)
(10 -2.244465402e-16 -5.664114275e-16)
(10 -5.973357284e-17 -2.494792449e-17)
(10 -1.906275201e-16 -2.339685431e-16)
(10 2.428921158e-16 -4.294898961e-16)
(10 8.115552755e-17 -1.607340497e-16)
(10 -2.143514911e-15 3.666977168e-15)
)
;

boundaryField
{
    left
    {
        type            dirichlet;
        value           uniform (4 0 0);
    }
    right
    {
        type            dirichlet;
        value           uniform (4 0 0);
    }
    sides
    {
        type            empty;
    }
}


// ************************************************************************* //
