/*--------------------------------*- C++ -*----------------------------------*\
| =========                 |                                                 |
| \\      /  F ield         | foam-extend: Open Source CFD                    |
|  \\    /   O peration     | Version:     4.1                                |
|   \\  /    A nd           | Web:         http://www.foam-extend.org         |
|    \\/     M anipulation  |                                                 |
\*---------------------------------------------------------------------------*/
FoamFile
{
    version     2.0;
    format      ascii;
    class       cellScalarField;
    location    "15.7";
    object      T;
}
// * * * * * * * * * * * * * * * * * * * * * * * * * * * * * * * * * * * * * //

dimensions      [0 0 0 0 1 0 0];

internalField   nonuniform 
100
(
(4 -5.703630593e-17 1.624202108e-17)
(4 -1.203757242e-16 1.700820614e-16)
(4 -8.023742666e-17 -7.492716224e-17)
(4 -4.933226421e-17 -2.329066904e-16)
(4 3.663320969e-17 2.867017364e-17)
(4 -1.173911675e-16 2.309853685e-17)
(4 2.968979468e-16 -9.146873067e-17)
(4 -1.78399435e-16 1.203988548e-16)
(4 4.929582649e-16 -7.239942925e-17)
(4 -1.400883949e-15 -3.991161135e-16)
(4 1.633046071e-16 -6.463752394e-17)
(4 1.488834203e-15 9.711536116e-17)
(4 7.997407664e-16 7.158358377e-16)
(4 3.945606761e-14 2.704704371e-14)
(4 6.935555916e-13 4.329752035e-13)
(4 1.29386647e-11 8.470947906e-12)
(4 2.166709466e-10 1.26198422e-10)
(4.000000003 3.027513633e-09 1.735720478e-09)
(4.000000036 4.014218876e-08 2.192680025e-08)
(4.000000433 4.614954512e-07 2.319228817e-07)
(4.000004471 4.568685883e-06 2.155382289e-06)
(4.000040603 3.984223085e-05 1.724003991e-05)
(4.000315934 0.0002900752733 0.0001091018648)
(4.002002881 0.001660999634 0.0005212099586)
(4.010072058 0.007330950255 0.001868548326)
(4.040168858 0.02509533268 0.005075042995)
(4.128744283 0.06768760978 0.01054683471)
(4.337648343 0.1463668876 0.016808036)
(4.738622125 0.2578985046 0.02022193939)
(5.373883912 0.3756860923 0.0172030528)
(6.215159524 0.4582840886 0.007503539592)
(7.156956713 0.4734888925 -0.0048861218)
(8.057259461 0.4185649021 -0.01450857948)
(8.798898945 0.3195099725 -0.01819826905)
(9.329770113 0.2123839296 -0.01644798061)
(9.662517827 0.1238907738 -0.01193382583)
(9.846456986 0.06387995707 -0.007267354164)
(9.93673289 0.02931064453 -0.003807660823)
(9.976318929 0.01204403863 -0.001744831656)
(9.991920461 0.004458602482 -0.000707864123)
(9.997478129 0.001495393952 -0.0002567278348)
(9.99927715 0.0004568354216 -8.39210757e-05)
(9.99980901 0.0001277622055 -2.490142602e-05)
(9.999953308 3.286660098e-05 -6.749417229e-06)
(9.999989399 7.812198653e-06 -1.680584587e-06)
(9.999997757 1.723073085e-06 -3.864101702e-07)
(9.999999556 3.54067179e-07 -8.24300845e-08)
(9.999999918 6.803882765e-08 -1.638567901e-08)
(9.999999986 1.227035714e-08 -3.047426626e-09)
(9.999999998 2.08369432e-09 -5.322462355e-10)
(10 3.342293251e-10 -8.759911725e-11)
(10 5.079000175e-11 -1.363137852e-11)
(10 7.331199174e-12 -2.012150507e-12)
(10 1.007310208e-12 -2.815363241e-13)
(10 1.329588195e-13 -3.779719868e-14)
(10 1.552119902e-14 -6.047874729e-15)
(10 -4.132208809e-16 3.638050068e-16)
(10 -2.870611943e-16 -1.990685775e-16)
(10 -1.270783907e-16 -1.156046438e-16)
(10 3.1347446e-16 -1.058176034e-16)
(10 9.014120726e-17 -3.56879079e-16)
(10 1.383805364e-16 6.000433778e-17)
(10 5.036504502e-16 -2.163195857e-16)
(10 3.431042654e-17 -7.464515205e-16)
(10 3.938088214e-16 -1.793390632e-16)
(10 3.966379341e-16 3.272715141e-17)
(10 -2.239576397e-16 6.736211648e-16)
(10 -8.439319759e-17 1.024859188e-16)
(10 2.73281715e-16 5.392017699e-17)
(10 -2.924092354e-17 -3.649811965e-16)
(10 -3.569969941e-17 -3.616858697e-16)
(10 4.318960472e-16 -8.16481355e-17)
(10 -3.636466788e-16 -2.451379128e-16)
(10 7.131799067e-17 -2.619636466e-16)
(10 3.101293805e-16 -3.642688156e-16)
(10 3.579622006e-16 -2.03316367e-17)
(10 1.576178823e-16 4.192574124e-16)
(10 -1.873224137e-18 2.469867156e-16)
(10 -9.587671816e-17 3.250787039e-16)
(10 -9.02438669e-17 -2.676926112e-16)
(10 3.301730438e-16 -4.059177507e-16)
(10 7.929471257e-19 6.61445381e-16)
(10 1.757103841e-16 7.950711532e-17)
(10 2.152476371e-16 -5.720282343e-16)
(10 1.780894105e-16 5.763949537e-16)
(10 -2.368924559e-18 -2.31865731e-16)
(10 2.272139476e-16 -2.013578556e-16)
(10 1.902808107e-16 5.162117995e-17)
(10 -6.101036677e-17 -7.407667736e-17)
(10 8.937374546e-17 -1.210853254e-16)
(10 1.043057822e-16 -3.493478697e-16)
(10 9.907044586e-20 5.3774855e-16)
(10 -4.05553902e-16 1.732352638e-16)
(10 1.593629449e-16 4.754005986e-16)
(10 -1.573159957e-16 -1.60085046e-16)
(10 1.568036766e-16 5.611738186e-16)
(10 -2.116977023e-16 9.635950446e-17)
(10 -1.470095454e-16 -1.839973068e-16)
(10 -1.286732217e-16 7.037724085e-19)
(10 -2.554532172e-16 2.954983132e-15)
)
;

boundaryField
{
    left
    {
        type            dirichlet;
        value           uniform (4 0 0);
    }
    right
    {
        type            dirichlet;
        value           uniform (4 0 0);
    }
    sides
    {
        type            empty;
    }
}


// ************************************************************************* //
