/*--------------------------------*- C++ -*----------------------------------*\
| =========                 |                                                 |
| \\      /  F ield         | foam-extend: Open Source CFD                    |
|  \\    /   O peration     | Version:     4.1                                |
|   \\  /    A nd           | Web:         http://www.foam-extend.org         |
|    \\/     M anipulation  |                                                 |
\*---------------------------------------------------------------------------*/
FoamFile
{
    version     2.0;
    format      ascii;
    class       cellScalarField;
    location    "6.1";
    object      T;
}
// * * * * * * * * * * * * * * * * * * * * * * * * * * * * * * * * * * * * * //

dimensions      [0 0 0 0 1 0 0];

internalField   nonuniform 10((4 -1.018738963e-13 5.610665066e-13) (4 1.360228473e-11 -2.827994219e-11) (4 -1.193082415e-10 1.189732522e-09) (4.000000025 3.075032259e-08 -2.581352063e-09) (4.000000113 5.526613075e-08 4.066784437e-07) (4.000011325 1.657716753e-05 8.645113349e-06) (4.00015714 0.000147880053 8.478767192e-05) (4.002263601 0.002790913045 0.00185889927) (4.031433964 0.03401666132 0.01354931824) (4.219263255 0.1747198628 0.03988257914));

boundaryField
{
    left
    {
        type            dirichlet;
        value           uniform (4 0 0);
    }
    right
    {
        type            dirichlet;
        value           uniform (4 0 0);
    }
    sides
    {
        type            empty;
    }
}


// ************************************************************************* //
