/*--------------------------------*- C++ -*----------------------------------*\
| =========                 |                                                 |
| \\      /  F ield         | foam-extend: Open Source CFD                    |
|  \\    /   O peration     | Version:     4.1                                |
|   \\  /    A nd           | Web:         http://www.foam-extend.org         |
|    \\/     M anipulation  |                                                 |
\*---------------------------------------------------------------------------*/
FoamFile
{
    version     2.0;
    format      ascii;
    class       cellScalarField;
    location    "14";
    object      T;
}
// * * * * * * * * * * * * * * * * * * * * * * * * * * * * * * * * * * * * * //

dimensions      [0 0 0 0 1 0 0];

internalField   nonuniform 
100
(
(4 -5.703630593e-17 1.624202108e-17)
(4 -8.03175426e-17 8.636280441e-17)
(4 -5.325908412e-17 1.634623707e-16)
(4 -6.596833479e-17 -5.499379438e-17)
(4 1.741398793e-16 -1.620638148e-16)
(4 -4.467054027e-16 -1.582430873e-18)
(4 5.355323996e-16 -1.041238698e-16)
(4 -3.666679185e-16 -2.368779497e-18)
(4 8.543974204e-16 -9.779383401e-17)
(4 -1.27055246e-15 1.789125061e-18)
(4 5.106281169e-15 7.134194743e-15)
(4 2.271783775e-13 1.248305518e-13)
(4 3.381606128e-12 2.39756099e-12)
(4 7.810287066e-11 5.096001013e-11)
(4.000000001 1.256916734e-09 7.264460512e-10)
(4.000000016 1.824772935e-08 1.085200265e-08)
(4.000000225 2.510276568e-07 1.357899993e-07)
(4.000002658 2.81205077e-06 1.402078411e-06)
(4.000027048 2.760162314e-05 1.299654271e-05)
(4.000241092 0.0002345515423 9.76476314e-05)
(4.0017612 0.001560213328 0.0005381122036)
(4.009977779 0.007730506114 0.002128145424)
(4.043404132 0.02857755672 0.006108590577)
(4.147128975 0.08040258717 0.01290504072)
(4.397576979 0.176107054 0.02012830374)
(4.877476977 0.3066090788 0.02263417128)
(5.620271425 0.4320974007 0.01642632311)
(6.563491076 0.5007271503 0.003034627882)
(7.559589894 0.4837458526 -0.01096497601)
(8.445086489 0.3943869958 -0.01918496723)
(9.114942676 0.2743297629 -0.01981974866)
(9.550430144 0.1644360122 -0.01541965041)
(9.795965729 0.08571897784 -0.009725851103)
(9.917042263 0.03919291655 -0.005154490138)
(9.969672452 0.01584298091 -0.002346410636)
(9.989989167 0.005704214676 -0.0009319140034)
(9.997002796 0.001842122304 -0.000326884124)
(9.9991823 0.000537101084 -0.0001022895045)
(9.999795767 0.000142261592 -2.880318398e-05)
(9.999953086 3.442931441e-05 -7.353987625e-06)
(9.999990045 7.654838833e-06 -1.714068523e-06)
(9.99999804 1.571513086e-06 -3.669614334e-07)
(9.999999641 2.993211894e-07 -7.256416899e-08)
(9.999999938 5.312761253e-08 -1.332130845e-08)
(9.99999999 8.823930753e-09 -2.28098802e-09)
(9.999999998 1.376684235e-09 -3.658574763e-10)
(10 2.024849016e-10 -5.518660452e-11)
(10 2.817035457e-11 -7.856734217e-12)
(10 3.718303969e-12 -1.059083398e-12)
(10 4.695417899e-13 -1.360077861e-13)
(10 5.316113116e-14 -1.634550148e-14)
(10 3.350787846e-15 -1.414862181e-15)
(10 -4.931016173e-16 4.855405722e-16)
(10 3.850778936e-17 -3.919277816e-16)
(10 4.740110813e-16 -5.45590106e-16)
(10 5.155040855e-16 -5.907848974e-16)
(10 -3.981112487e-16 -3.688659524e-16)
(10 -9.324118159e-17 -3.14305224e-16)
(10 3.193111485e-16 -1.86733218e-16)
(10 -9.842982071e-17 1.483801479e-16)
(10 -3.418668264e-16 5.669897557e-16)
(10 -8.538500818e-17 -1.011424165e-16)
(10 -7.527392446e-17 2.377299723e-16)
(10 -2.057417141e-16 3.163805145e-16)
(10 6.301448536e-17 5.210066368e-16)
(10 4.032354287e-16 1.449081867e-16)
(10 -7.8297415e-17 3.772278405e-16)
(10 -4.197870231e-16 1.177767736e-16)
(10 2.028370344e-16 -3.182827375e-16)
(10 -1.154766847e-16 -9.536239676e-17)
(10 8.92957086e-17 -5.893510836e-16)
(10 2.916868142e-16 -2.592192568e-16)
(10 1.71851036e-16 -2.006189793e-16)
(10 2.092735354e-16 4.171159166e-16)
(10 -2.839041028e-16 1.587162047e-16)
(10 2.513638958e-16 2.800945245e-16)
(10 -3.22002296e-17 3.933695061e-16)
(10 2.090874584e-16 2.859513255e-16)
(10 -4.876478311e-17 -2.499270881e-16)
(10 -1.696191831e-16 2.801639154e-16)
(10 -3.78413825e-16 -2.04541669e-17)
(10 -9.610385719e-17 2.438573372e-16)
(10 -2.359666773e-16 -5.795496963e-16)
(10 2.171443527e-16 -4.246850564e-16)
(10 3.936909133e-16 -1.587451525e-16)
(10 -9.698957536e-17 1.62925117e-16)
(10 1.821446766e-17 5.016725724e-16)
(10 1.094215095e-16 -3.726216824e-16)
(10 -1.275014345e-16 2.673409055e-16)
(10 -4.43037707e-17 -4.707490683e-17)
(10 1.880847479e-16 -3.971881041e-16)
(10 5.744439669e-16 1.844342789e-16)
(10 9.095701219e-17 -7.473310771e-17)
(10 2.344920179e-16 4.626460151e-16)
(10 1.360376702e-16 -1.708539232e-17)
(10 -3.101757707e-17 2.540826749e-16)
(10 -3.593591332e-16 3.750940747e-16)
(10 -7.668835713e-17 2.383595207e-16)
(10 -4.208954963e-16 -5.480454473e-17)
(10 -1.706190482e-15 4.184533321e-15)
)
;

boundaryField
{
    left
    {
        type            dirichlet;
        value           uniform (4 0 0);
    }
    right
    {
        type            dirichlet;
        value           uniform (4 0 0);
    }
    sides
    {
        type            empty;
    }
}


// ************************************************************************* //
