/*--------------------------------*- C++ -*----------------------------------*\
| =========                 |                                                 |
| \\      /  F ield         | foam-extend: Open Source CFD                    |
|  \\    /   O peration     | Version:     4.1                                |
|   \\  /    A nd           | Web:         http://www.foam-extend.org         |
|    \\/     M anipulation  |                                                 |
\*---------------------------------------------------------------------------*/
FoamFile
{
    version     2.0;
    format      ascii;
    class       cellScalarField;
    location    "4.3";
    object      T;
}
// * * * * * * * * * * * * * * * * * * * * * * * * * * * * * * * * * * * * * //

dimensions      [0 0 0 0 1 0 0];

internalField   nonuniform 10((4 2.614490601e-09 5.808468592e-09) (4.000000084 -1.135394048e-08 -1.640101829e-07) (4.000000883 3.502948233e-06 7.020082119e-06) (4.000115081 0.0001278256736 1.975579828e-05) (4.00103633 0.001067383448 0.001359664826) (4.028939511 0.03848235165 0.02038239747) (4.298282405 0.2688028102 0.06599972948) (5.263538878 0.7032430787 0.06231066389) (6.932574212 0.903867512 -0.01566335575) (8.54176762 0.6601428387 -0.06267337469));

boundaryField
{
    left
    {
        type            dirichlet;
        value           uniform (4 0 0);
    }
    right
    {
        type            dirichlet;
        value           uniform (4 0 0);
    }
    sides
    {
        type            empty;
    }
}


// ************************************************************************* //
