/*--------------------------------*- C++ -*----------------------------------*\
| =========                 |                                                 |
| \\      /  F ield         | foam-extend: Open Source CFD                    |
|  \\    /   O peration     | Version:     4.1                                |
|   \\  /    A nd           | Web:         http://www.foam-extend.org         |
|    \\/     M anipulation  |                                                 |
\*---------------------------------------------------------------------------*/
FoamFile
{
    version     2.0;
    format      ascii;
    class       cellScalarField;
    location    "17";
    object      T;
}
// * * * * * * * * * * * * * * * * * * * * * * * * * * * * * * * * * * * * * //

dimensions      [0 0 0 0 1 0 0];

internalField   nonuniform 
100
(
(4 -5.703630593e-17 1.624202108e-17)
(4 -8.815948658e-17 3.084981073e-17)
(4 3.401787561e-19 1.824698783e-16)
(4 -3.388097081e-17 1.140700307e-16)
(4 -1.706570145e-16 2.30652317e-16)
(4 -2.864704272e-16 2.182417217e-16)
(4 3.265564426e-16 6.950231241e-17)
(4 -4.412263117e-16 2.518507683e-16)
(4 8.717846287e-16 -2.074400207e-17)
(4 -1.287141346e-15 8.103973652e-17)
(4 1.785468026e-16 1.162868439e-17)
(4 1.465063193e-15 -2.932707401e-18)
(4 7.040366692e-16 1.398380563e-17)
(4 8.323894805e-17 -1.426249784e-16)
(4 1.4509048e-15 1.348876369e-15)
(4 4.249117811e-14 2.7729179e-14)
(4 7.372117366e-13 4.650212687e-13)
(4 1.281397441e-11 7.918646319e-12)
(4 1.941811444e-10 1.110302417e-10)
(4.000000002 2.59499995e-09 1.447371148e-09)
(4.00000003 3.213057971e-08 1.695472439e-08)
(4.000000332 3.477495039e-07 1.70531837e-07)
(4.000003266 3.289298105e-06 1.510554779e-06)
(4.000028321 2.730404835e-05 1.146599333e-05)
(4.00021093 0.0001902475327 6.999622396e-05)
(4.001297634 0.001063394935 0.0003312422379)
(4.006454142 0.004687916953 0.001207224933)
(4.025920979 0.01635909478 0.003411484285)
(4.084912428 0.04574708982 0.007539782699)
(4.230242724 0.1040057524 0.01308735967)
(4.525170819 0.1949499061 0.01772570906)
(5.024336585 0.3051496736 0.01814799647)
(5.736904752 0.403460267 0.01249166113)
(6.603584032 0.4552330777 0.002263810801)
(7.509955208 0.442394671 -0.008330119629)
(8.331757792 0.3733813694 -0.01520342951)
(8.98268692 0.2757884303 -0.0167996542)
(9.436252191 0.179529936 -0.01429116021)
(9.716090003 0.1036755366 -0.01004991068)
(9.869895722 0.05343822495 -0.006040866817)
(9.945634941 0.02472652409 -0.003165939681)
(9.979231705 0.01032686231 -0.001466582605)
(9.992725259 0.003912919696 -0.0006067523753)
(9.997656094 0.001351693446 -0.0002260803544)
(9.999303079 0.0004276713425 -7.640970316e-05)
(9.999808143 0.000124481617 -2.357034043e-05)
(9.999950939 3.347150122e-05 -6.673000004e-06)
(9.999988309 8.347167223e-06 -1.74257876e-06)
(9.999997395 1.937879727e-06 -4.216685959e-07)
(9.999999456 4.20322033e-07 -9.494922139e-08)
(9.999999893 8.546064231e-08 -1.997329298e-08)
(9.99999998 1.634030621e-08 -3.939322771e-09)
(9.999999997 2.946928527e-09 -7.309263793e-10)
(9.999999999 5.027196779e-10 -1.279898086e-10)
(10 8.133673545e-11 -2.121173416e-11)
(10 1.251328104e-11 -3.337504919e-12)
(10 1.837548482e-12 -4.998101621e-13)
(10 2.545284962e-13 -7.172185999e-14)
(10 3.094523817e-14 -8.390359795e-15)
(10 3.823251123e-15 -2.286577326e-15)
(10 7.243723424e-16 -7.522958861e-16)
(10 3.106397063e-16 1.016411334e-16)
(10 -4.089627973e-16 1.268874319e-16)
(10 -5.187444319e-16 -2.858917525e-16)
(10 1.773429272e-16 -1.603681854e-16)
(10 2.356609377e-16 6.199484779e-16)
(10 4.111368503e-16 3.612670353e-17)
(10 -8.012233148e-17 -2.689203035e-16)
(10 8.295816758e-17 2.41828297e-16)
(10 -1.985965522e-16 2.859280384e-16)
(10 -2.378369392e-17 -2.074743287e-16)
(10 -2.403304711e-16 6.718028372e-16)
(10 -4.671380034e-16 3.634977056e-16)
(10 -4.626071318e-17 1.820146581e-16)
(10 -3.98879284e-17 9.134990372e-17)
(10 -3.979840342e-16 4.882593567e-16)
(10 2.078686232e-16 -1.928694599e-16)
(10 -3.267136827e-17 -3.768797282e-16)
(10 -1.192144136e-16 2.031725006e-17)
(10 -3.460636018e-16 -7.961316276e-17)
(10 -2.398893529e-16 -3.202934064e-16)
(10 1.363699493e-16 -7.682403477e-16)
(10 3.823973062e-16 -8.480330402e-17)
(10 -1.59690243e-16 -2.376043224e-16)
(10 2.719605266e-16 -4.832049881e-17)
(10 1.591218782e-16 6.204661249e-17)
(10 -3.998293269e-18 4.880741928e-17)
(10 7.00874211e-17 -2.829780785e-16)
(10 -3.173458165e-17 -2.01075338e-16)
(10 -4.491881481e-16 -6.52345925e-17)
(10 -2.765194752e-16 -5.302867544e-16)
(10 6.967737855e-19 -3.682025162e-16)
(10 -3.14186707e-16 7.122694631e-17)
(10 -2.232138e-16 -5.57445143e-16)
(10 1.764894803e-17 9.025581295e-17)
(10 1.944169666e-16 2.049810662e-16)
(10 -2.611008636e-16 1.784166898e-16)
(10 -1.420813813e-16 -4.506528542e-17)
(10 -5.641585138e-16 7.684548697e-18)
(10 -1.214787425e-15 3.295620885e-15)
)
;

boundaryField
{
    left
    {
        type            dirichlet;
        value           uniform (4 0 0);
    }
    right
    {
        type            dirichlet;
        value           uniform (4 0 0);
    }
    sides
    {
        type            empty;
    }
}


// ************************************************************************* //
