/*--------------------------------*- C++ -*----------------------------------*\
| =========                 |                                                 |
| \\      /  F ield         | foam-extend: Open Source CFD                    |
|  \\    /   O peration     | Version:     4.1                                |
|   \\  /    A nd           | Web:         http://www.foam-extend.org         |
|    \\/     M anipulation  |                                                 |
\*---------------------------------------------------------------------------*/
FoamFile
{
    version     2.0;
    format      ascii;
    class       cellScalarField;
    location    "1";
    object      T;
}
// * * * * * * * * * * * * * * * * * * * * * * * * * * * * * * * * * * * * * //

dimensions      [0 0 0 0 1 0 0];

internalField   nonuniform 10((5.008216568 0.01186428275 0.00355128889) (5.034994238 0.001983486173 -0.01312275273) (5.001125488 -0.003548940208 0.02612378352) (5.070492258 0.007192756715 -0.05373956646) (4.927281572 -0.01478771941 0.1110553828) (5.223703579 0.03106198495 -0.2293984724) (4.615037859 -0.05855962934 0.4765543643) (5.921258631 0.1854384564 -0.9596446578) (3.763475946 0.3483629179 2.276036346) (13.89569158 6.846323517 -1.638401297));

boundaryField
{
    left
    {
        type            dirichlet;
        value           uniform (5 0 0);
    }
    right
    {
        type            homogenous;
    }
    sides
    {
        type            empty;
    }
}


// ************************************************************************* //
