/*--------------------------------*- C++ -*----------------------------------*\
| =========                 |                                                 |
| \\      /  F ield         | foam-extend: Open Source CFD                    |
|  \\    /   O peration     | Version:     4.1                                |
|   \\  /    A nd           | Web:         http://www.foam-extend.org         |
|    \\/     M anipulation  |                                                 |
\*---------------------------------------------------------------------------*/
FoamFile
{
    version     2.0;
    format      ascii;
    class       cellScalarField;
    location    "49.8";
    object      T;
}
// * * * * * * * * * * * * * * * * * * * * * * * * * * * * * * * * * * * * * //

dimensions      [0 0 0 0 1 0 0];

internalField   nonuniform 
100
(
(4 -5.703630593e-17 1.624202108e-17)
(4 -1.214759269e-16 -4.437331071e-17)
(4 2.856858033e-16 -6.767720752e-17)
(4 -8.750978521e-17 -4.880181621e-18)
(4 -2.497634569e-16 2.708052383e-16)
(4 -1.455324565e-16 1.405204523e-16)
(4 3.407775099e-16 1.444633577e-16)
(4 -4.111591173e-16 -1.596145594e-18)
(4 8.983001876e-16 -9.148534848e-17)
(4 -1.285579613e-15 1.172197225e-16)
(4 5.400295691e-17 -1.253052456e-16)
(4 4.844269954e-16 -1.731965119e-16)
(4 4.136332601e-16 -5.512568762e-17)
(4 3.446172121e-17 2.433543594e-16)
(4 -1.493531905e-16 1.619015886e-16)
(4 8.861766387e-17 1.887363958e-16)
(4 -1.235967603e-17 -7.098479314e-17)
(4 -2.1352481e-16 1.876697709e-16)
(4 -8.585405172e-17 3.856415589e-17)
(4 1.019804663e-16 -9.20641866e-17)
(4 -6.8784524e-17 -8.837801125e-17)
(4 1.008345725e-17 2.092527833e-16)
(4 1.302068345e-16 -1.486482969e-16)
(4 -1.074818799e-16 -2.186627491e-17)
(4 -7.157952368e-18 -6.546015218e-17)
(4 -1.655023697e-16 -1.155558428e-16)
(4 9.884949733e-17 -8.394826891e-17)
(4 -6.577434885e-17 -7.545895417e-17)
(4 -3.295244766e-16 1.23884325e-16)
(4 3.506388344e-16 1.171311538e-17)
(4 -2.29131195e-16 7.472324701e-17)
(4 -1.16412707e-16 -8.402774886e-17)
(4 7.860911221e-18 -2.159746673e-16)
(4 -4.300632461e-16 -2.430515946e-16)
(4 1.240470515e-16 -6.905561604e-17)
(4 -2.844097827e-16 9.47144084e-18)
(4 8.212635749e-16 -1.373322448e-16)
(4 -7.359621765e-16 1.353316382e-16)
(4 3.350629524e-16 3.6771805e-18)
(4 -2.150098067e-17 1.144064041e-16)
(4 8.332407606e-17 -8.337279778e-17)
(4 1.442091896e-17 2.431122534e-17)
(4 -7.230284376e-17 2.208968683e-16)
(4 -2.377122329e-16 -8.011770671e-17)
(4 -4.79126615e-16 -3.884591761e-17)
(4 9.099993875e-16 1.50260813e-17)
(4 -8.227521078e-16 2.485916702e-16)
(4 8.667669089e-16 1.375718551e-16)
(4 -9.114327519e-16 -1.464186391e-16)
(4 4.526054638e-16 9.38561493e-18)
(4 9.42926262e-17 1.265938471e-16)
(4 -1.631147259e-16 -1.840118177e-17)
(4 7.731753245e-18 1.540191588e-16)
(4 -7.977816239e-17 4.704287806e-17)
(4 -3.244440591e-16 -1.044905277e-16)
(4 3.490920521e-17 1.531964141e-16)
(4 -7.401914829e-17 -8.13879068e-17)
(4 8.418928092e-17 -1.625148666e-16)
(4 5.207768348e-17 -6.794965448e-17)
(4 -3.321633212e-17 3.133825599e-16)
(4 -1.57411954e-16 -7.896166247e-17)
(4 -9.592350875e-18 5.066669443e-17)
(4 -6.919468496e-17 5.208371257e-17)
(4 -6.77813497e-17 1.970850499e-17)
(4 -6.554899152e-17 1.369934805e-16)
(4 -1.016489065e-17 -5.543618117e-17)
(4 3.685851289e-16 4.885334363e-16)
(4 5.602975058e-15 2.206517357e-15)
(4 4.334423598e-14 1.805042182e-14)
(4 3.110213791e-13 1.234746395e-13)
(4 2.091366741e-12 7.982785604e-13)
(4 1.32437788e-11 4.847422052e-12)
(4 7.855775331e-11 2.749155982e-11)
(4.000000001 4.356218341e-10 1.453016287e-10)
(4.000000003 2.253136795e-09 7.139364173e-10)
(4.000000014 1.08485903e-08 3.254774177e-09)
(4.000000067 4.855224899e-08 1.374747126e-08)
(4.000000292 2.017710005e-07 5.374851406e-08)
(4.00000118 7.782244209e-07 1.944320069e-07)
(4.000004439 2.785695321e-06 6.50772453e-07)
(4.000015558 9.257750815e-06 2.016057589e-06)
(4.000050807 2.858399788e-05 5.784323689e-06)
(4.000154758 8.207264568e-05 1.538211641e-05)
(4.000440231 0.0002193941717 3.794656556e-05)
(4.001171125 0.0005467041622 8.691843379e-05)
(4.002917986 0.001271645541 0.000185015562)
(4.006820625 0.002764856772 0.000366262705)
(4.014981767 0.005627136225 0.0006747227708)
(4.030978678 0.01073559006 0.001157076739)
(4.06041008 0.01922637502 0.001847187585)
(4.111303821 0.0323668644 0.002743904082)
(4.19413116 0.05128859433 0.003788126449)
(4.321160071 0.07659982336 0.004849478853)
(4.504982855 0.1079630097 0.005733713123)
(4.756285163 0.1437801719 0.006216871736)
(5.081230472 0.1811421177 0.006101779983)
(5.47910021 0.2161420408 0.005280766049)
(5.940920263 0.2445372997 0.003781797925)
(6.449635777 0.26260806 0.001778180453)
(6.981991374 0.2679686941 -0.000445437626)
)
;

boundaryField
{
    left
    {
        type            dirichlet;
        value           uniform (4 0 0);
    }
    right
    {
        type            dirichlet;
        value           uniform (4 0 0);
    }
    sides
    {
        type            empty;
    }
}


// ************************************************************************* //
