/*--------------------------------*- C++ -*----------------------------------*\
| =========                 |                                                 |
| \\      /  F ield         | foam-extend: Open Source CFD                    |
|  \\    /   O peration     | Version:     4.1                                |
|   \\  /    A nd           | Web:         http://www.foam-extend.org         |
|    \\/     M anipulation  |                                                 |
\*---------------------------------------------------------------------------*/
FoamFile
{
    version     2.0;
    format      ascii;
    class       cellScalarField;
    location    "7.4";
    object      T;
}
// * * * * * * * * * * * * * * * * * * * * * * * * * * * * * * * * * * * * * //

dimensions      [0 0 0 0 1 0 0];

internalField   nonuniform 
100
(
(4 1.105875269e-15 9.985071378e-16)
(4 -7.104931829e-14 -3.914089314e-14)
(4 3.198231261e-12 2.08361216e-12)
(4 -4.241199106e-11 -3.319286106e-11)
(4.000000001 1.664077545e-09 1.671080103e-09)
(4.000000024 1.969324804e-08 1.964481514e-09)
(4.00000034 4.729078558e-07 5.277119508e-07)
(4.00001089 1.356596191e-05 6.715032514e-06)
(4.000137747 0.000141640749 8.465328448e-05)
(4.00185208 0.00214908381 0.001217806902)
(4.020657126 0.02101944876 0.007965623396)
(4.134240671 0.1057386615 0.02536720199)
(4.530143043 0.3057147651 0.04257097852)
(5.397861244 0.5590353482 0.03471494637)
(6.67537569 0.6917056032 0.0002276909798)
(8.003035934 0.6088644916 -0.03076567178)
(9.015945318 0.3967669907 -0.03695620733)
(9.60214225 0.197932285 -0.02558037289)
(9.866941401 0.07783545726 -0.01245568983)
(9.962730354 0.02476578792 -0.004616899657)
(9.991131526 0.006526896088 -0.001365147938)
(9.998180871 0.001454902985 -0.0003329261472)
(9.999673772 0.0002794545042 -6.872956358e-05)
(9.999948177 4.701734832e-05 -1.226720734e-05)
(9.99999262 7.029302035e-06 -1.926556345e-06)
(9.999999048 9.456128978e-07 -2.701885672e-07)
(9.999999888 1.15716674e-07 -3.426415869e-08)
(9.999999988 1.300403061e-08 -3.971366465e-09)
(9.999999999 1.353145571e-09 -4.245642152e-10)
(10 1.313188956e-10 -4.219642137e-11)
(10 1.195935298e-11 -3.92571894e-12)
(10 1.025051615e-12 -3.430638288e-13)
(10 8.567234944e-14 -2.795999837e-14)
(10 5.85975206e-15 -2.282868863e-15)
(10 -1.330491718e-15 1.260994418e-15)
(10 6.162353019e-16 1.835087784e-16)
(10 1.0669638e-16 4.492312751e-16)
(10 5.062512411e-16 -5.233267397e-18)
(10 1.711306189e-16 -4.959526613e-16)
(10 7.655709643e-16 1.103151043e-15)
(10 -1.440009309e-15 3.416378695e-16)
(10 6.553495099e-16 3.350402217e-16)
(10 -1.609712243e-15 2.122611611e-16)
(10 1.168089005e-15 -7.935328341e-16)
(10 -2.138022945e-16 3.470374872e-16)
(10 8.545982542e-17 4.003610259e-16)
(10 -2.686439705e-16 7.598969906e-17)
(10 -2.977721786e-16 7.597674377e-16)
(10 -2.721069048e-16 4.223951664e-16)
(10 -2.69017066e-16 7.779169752e-16)
(10 -1.781115649e-16 3.091958335e-16)
(10 -5.477559463e-16 2.47056783e-16)
(10 1.833348317e-16 3.316605652e-16)
(10 1.133491852e-16 -3.498930851e-16)
(10 -2.128139868e-16 2.433475401e-16)
(10 -2.980597441e-17 9.861994514e-17)
(10 -3.427205367e-16 4.588435034e-16)
(10 -5.619696955e-17 -1.244791733e-16)
(10 1.058443714e-17 -3.079709458e-16)
(10 -1.09572862e-16 1.724493175e-16)
(10 -3.15274972e-16 -3.063104395e-16)
(10 -3.405254463e-16 -2.392138052e-16)
(10 2.895190041e-16 4.494675869e-16)
(10 -4.884724923e-16 4.162309362e-16)
(10 -3.416005079e-17 -2.017949339e-17)
(10 -1.211978972e-16 7.451010497e-17)
(10 -2.0783034e-16 3.386079116e-16)
(10 -3.460344677e-16 -5.48222837e-17)
(10 -4.077308312e-16 -3.072755195e-17)
(10 5.943933883e-16 -4.712290685e-16)
(10 -6.475134384e-18 1.05236753e-16)
(10 -1.593671191e-16 -5.750183036e-16)
(10 3.610322661e-16 -1.397187613e-16)
(10 -5.959907549e-17 -9.052737729e-17)
(10 3.634839453e-16 -1.278542971e-16)
(10 -1.675796112e-16 -3.525298529e-17)
(10 3.711401597e-16 3.213878139e-16)
(10 -4.577580063e-16 -7.78076163e-17)
(10 2.61971127e-16 2.944102588e-17)
(10 -1.365836193e-16 -1.744382481e-17)
(10 2.188365319e-16 -5.564608655e-16)
(10 1.000862126e-15 -5.078880228e-16)
(10 -1.354184948e-16 7.673887687e-17)
(10 -4.236895983e-18 2.400961845e-18)
(10 -1.325615648e-19 7.511991335e-20)
(10 -4.147510002e-21 2.350308647e-21)
(10 -1.297649077e-22 7.353510526e-23)
(10 -4.060009803e-24 2.300724083e-24)
(10 -1.270272518e-25 7.198373196e-26)
(10 -3.974355601e-27 2.252185608e-27)
(10 -1.243473524e-28 7.046508807e-29)
(10 -3.890508449e-30 2.204671151e-30)
(10 -1.217239909e-31 6.897848307e-32)
(10 -3.808430225e-33 2.158159109e-33)
(10 -1.191559747e-34 6.752324105e-35)
(10 -3.728083609e-36 2.112628334e-36)
(10 -1.16642136e-37 6.609870033e-38)
(10 -3.649432069e-39 2.068058123e-39)
(10 -1.141813318e-40 6.470421321e-41)
(10 -1.431923716e-15 3.951159615e-15)
)
;

boundaryField
{
    left
    {
        type            dirichlet;
        value           uniform (4 0 0);
    }
    right
    {
        type            dirichlet;
        value           uniform (4 0 0);
    }
    sides
    {
        type            empty;
    }
}


// ************************************************************************* //
