/*--------------------------------*- C++ -*----------------------------------*\
| =========                 |                                                 |
| \\      /  F ield         | foam-extend: Open Source CFD                    |
|  \\    /   O peration     | Version:     4.1                                |
|   \\  /    A nd           | Web:         http://www.foam-extend.org         |
|    \\/     M anipulation  |                                                 |
\*---------------------------------------------------------------------------*/
FoamFile
{
    version     2.0;
    format      ascii;
    class       cellScalarField;
    location    "32";
    object      T;
}
// * * * * * * * * * * * * * * * * * * * * * * * * * * * * * * * * * * * * * //

dimensions      [0 0 0 0 1 0 0];

internalField   nonuniform 
100
(
(4 -5.703630593e-17 1.624202108e-17)
(4 -1.966391246e-16 -1.180989697e-16)
(4 7.06183779e-17 8.582798596e-17)
(4 -8.535021599e-17 2.088879722e-17)
(4 2.501628476e-16 2.402196111e-17)
(4 -5.678438684e-16 7.774658757e-18)
(4 6.062903877e-16 -8.57315284e-17)
(4 -4.541596621e-16 4.12139285e-17)
(4 8.545532731e-16 1.611169562e-16)
(4 -1.453921532e-15 2.181063391e-16)
(4 3.676768675e-17 1.145194151e-18)
(4 1.130004223e-16 -1.183169528e-16)
(4 9.235682642e-16 -7.193136433e-18)
(4 -9.375980786e-16 -9.550150102e-17)
(4 1.180481788e-15 -2.31949103e-16)
(4 -9.348377712e-16 9.137584229e-17)
(4 8.622516081e-16 1.192893522e-16)
(4 -1.023403337e-15 2.297159657e-16)
(4 8.092364802e-16 6.14058382e-18)
(4 -4.481933101e-16 3.312069808e-16)
(4 -2.13281795e-16 -1.152655173e-16)
(4 7.957145982e-17 -1.329224524e-16)
(4 -1.674847517e-16 -9.125547412e-17)
(4 7.766566421e-17 -1.671764591e-16)
(4 8.203556962e-17 -1.555197235e-16)
(4 1.150659745e-16 -1.70148709e-16)
(4 -1.699104473e-16 -3.895931054e-17)
(4 -8.198951197e-18 1.54794898e-17)
(4 -2.966756751e-16 1.270912418e-16)
(4 1.587341871e-16 -5.548725284e-17)
(4 2.901862517e-16 -1.176780353e-16)
(4 2.12460634e-17 -4.273765608e-17)
(4 -1.106810722e-16 2.430599293e-16)
(4 -5.543016153e-16 -9.534841309e-17)
(4 8.786022691e-16 -7.944802092e-19)
(4 -7.117374424e-16 5.983485453e-17)
(4 2.492698578e-16 1.000550933e-16)
(4 -5.046819713e-16 5.717731336e-16)
(4 7.969802042e-15 5.064934483e-15)
(4 1.067234063e-13 5.396314491e-14)
(4 1.090901043e-12 5.266591836e-13)
(4 1.03238242e-11 4.813414014e-12)
(4 9.096263908e-11 4.060146733e-11)
(4.000000001 7.397183318e-10 3.146213555e-10)
(4.000000006 5.521648292e-09 2.224918468e-09)
(4.000000042 3.758758612e-08 1.424754525e-08)
(4.000000271 2.316085226e-07 8.190535804e-08)
(4.00000158 1.282135385e-06 4.193393716e-07)
(4.000008268 6.337173658e-06 1.900819785e-06)
(4.000038772 2.785697198e-05 7.603471121e-06)
(4.000162579 0.000108739016 2.681390367e-05)
(4.000609711 0.0003771016047 8.342391658e-05)
(4.002048546 0.001164085213 0.000229368678)
(4.006183899 0.003207678874 0.0005584626306)
(4.016831393 0.007916293876 0.001206545139)
(4.041472556 0.01755986383 0.002316582462)
(4.092906417 0.0351360336 0.003955260417)
(4.190069595 0.06364367637 0.005999792884)
(4.356745391 0.10471667 0.008058203524)
(4.61721728 0.1570207972 0.009505699945)
(4.989183516 0.2152448899 0.009677047482)
(5.476008255 0.2705372138 0.008156742837)
(6.0615753 0.3126489949 0.0050197744)
(6.710602795 0.3331021388 0.0008735770563)
(7.375145195 0.3280079267 -0.00334435242)
(8.005221781 0.2992404609 -0.006715570044)
(8.559674409 0.2535004722 -0.008657981837)
(9.01349166 0.1998519093 -0.009066310099)
(9.359707845 0.1469320626 -0.008243955637)
(9.60638604 0.1009424613 -0.006703395972)
(9.770847591 0.0649256536 -0.004953379082)
(9.873637436 0.0391695493 -0.003360179862)
(9.933971348 0.0222047744 -0.002107379774)
(9.967286738 0.01184837188 -0.001228390721)
(9.984621685 0.005960869384 -0.0006682815687)
(9.993134895 0.00283204412 -0.0003404961359)
(9.99708706 0.001272649945 -0.0001629584053)
(9.998824079 0.0005417450367 -7.344760256e-05)
(9.999547916 0.0002187746229 -3.124791826e-05)
(9.999834309 8.393351239e-05 -1.257541298e-05)
(9.999942048 3.063465296e-05 -4.796492008e-06)
(9.999980637 1.06516097e-05 -1.737036876e-06)
(9.999993813 3.532737632e-06 -5.982910819e-07)
(9.999998108 1.119063215e-06 -1.963028885e-07)
(9.999999445 3.389867734e-07 -6.144800932e-08)
(9.999999844 9.831472529e-08 -1.837724173e-08)
(9.999999958 2.733192301e-08 -5.258236404e-09)
(9.999999989 7.29174811e-09 -1.441311453e-09)
(9.999999997 1.868881162e-09 -3.789468008e-10)
(9.999999999 4.606715062e-10 -9.568208887e-11)
(10 1.093202781e-10 -2.322882448e-11)
(10 2.500484209e-11 -5.428312348e-12)
(10 5.514566871e-12 -1.221941524e-12)
(10 1.175647761e-12 -2.658885173e-13)
(10 2.380240314e-13 -5.621676495e-14)
(10 4.569168593e-14 -8.520185081e-15)
(10 1.639583351e-14 -3.191695436e-15)
(10 4.172586017e-15 -2.02962467e-15)
(10 -2.095611123e-16 4.579417125e-16)
(10 -1.84349714e-16 3.468171239e-15)
)
;

boundaryField
{
    left
    {
        type            dirichlet;
        value           uniform (4 0 0);
    }
    right
    {
        type            dirichlet;
        value           uniform (4 0 0);
    }
    sides
    {
        type            empty;
    }
}


// ************************************************************************* //
