/*--------------------------------*- C++ -*----------------------------------*\
| =========                 |                                                 |
| \\      /  F ield         | foam-extend: Open Source CFD                    |
|  \\    /   O peration     | Version:     4.1                                |
|   \\  /    A nd           | Web:         http://www.foam-extend.org         |
|    \\/     M anipulation  |                                                 |
\*---------------------------------------------------------------------------*/
FoamFile
{
    version     2.0;
    format      ascii;
    class       cellScalarField;
    location    "13.3";
    object      T;
}
// * * * * * * * * * * * * * * * * * * * * * * * * * * * * * * * * * * * * * //

dimensions      [0 0 0 0 1 0 0];

internalField   nonuniform 
100
(
(4 -5.703630593e-17 1.624202108e-17)
(4 -1.439609351e-16 9.411347441e-17)
(4 6.708391389e-17 -1.179450678e-16)
(4 -2.200323366e-19 -1.24492088e-16)
(4 -8.020090144e-18 -8.246162529e-17)
(4 -6.369620852e-16 9.002902267e-17)
(4 3.993387937e-16 1.63590801e-16)
(4 -5.046568423e-16 3.364530909e-16)
(4 7.070550285e-16 6.052094214e-17)
(4 2.548787659e-15 8.067221248e-15)
(4 2.770963003e-13 1.457185506e-13)
(4 3.697395345e-12 2.699234362e-12)
(4 9.652143916e-11 6.501233871e-11)
(4.000000001 1.601758559e-09 9.220897807e-10)
(4.000000021 2.377850302e-08 1.450104786e-08)
(4.000000303 3.424627063e-07 1.875188334e-07)
(4.000003677 3.907946891e-06 1.965200886e-06)
(4.000038115 3.915994495e-05 1.871138115e-05)
(4.000346805 0.0003399897509 0.0001425644578)
(4.002556768 0.002268459016 0.0007768837097)
(4.014373228 0.01104891618 0.002973827366)
(4.061181447 0.03953888469 0.008119137518)
(4.200938692 0.106470397 0.01604256595)
(4.522654003 0.2212594747 0.02290760555)
(5.106037902 0.3629294908 0.02265396406)
(5.955317004 0.4790653833 0.01253831409)
(6.964351981 0.5174282542 -0.003147141248)
(7.956939038 0.4639702225 -0.01623875537)
(8.775725196 0.3498610596 -0.02136894717)
(9.348632223 0.2244325909 -0.01901093812)
(9.692220678 0.1237757537 -0.01314412073)
(9.870543027 0.05925949697 -0.007454169432)
(9.951352584 0.02485215165 -0.003571316311)
(9.98359551 0.009206671552 -0.001474100847)
(9.995011761 0.003036606844 -0.0005319261785)
(9.998625276 0.0008982991409 -0.0001697909935)
(9.999654865 0.0002399921864 -4.842060667e-05)
(9.999920666 5.828035551e-05 -1.244361397e-05)
(9.999983221 1.2942497e-05 -2.903916094e-06)
(9.99999672 2.643205839e-06 -6.196131116e-07)
(9.999999404 4.990447209e-07 -1.21632015e-07)
(9.999999899 8.753112556e-08 -2.209082868e-08)
(9.999999984 1.432742038e-08 -3.731157875e-09)
(9.999999998 2.197769051e-09 -5.888189943e-10)
(10 3.17170958e-10 -8.719618706e-11)
(10 4.321967681e-11 -1.216522635e-11)
(10 5.581784617e-12 -1.604743348e-12)
(10 6.853657152e-13 -2.011911988e-13)
(10 8.151225622e-14 -2.562064094e-14)
(10 5.956657779e-15 -2.944982805e-15)
(10 -4.638956564e-16 6.616818389e-16)
(10 -2.52860663e-16 1.988518849e-16)
(10 4.678412394e-16 1.037467042e-16)
(10 -4.096583513e-16 -6.198742574e-17)
(10 7.189273547e-18 -1.818499356e-16)
(10 -2.306921124e-16 4.922219874e-16)
(10 8.294506453e-17 -4.032119485e-16)
(10 5.063971755e-16 9.143085296e-17)
(10 -5.99472484e-17 3.260572539e-16)
(10 -6.196250694e-17 2.602715479e-16)
(10 7.289702438e-17 -3.308910631e-16)
(10 3.835489488e-16 -1.150560837e-16)
(10 1.357375191e-16 -5.752427961e-17)
(10 -1.312846421e-16 -1.684243964e-17)
(10 8.369809247e-17 3.102168396e-17)
(10 1.458055183e-17 4.773536484e-16)
(10 -1.541222648e-16 1.790012215e-16)
(10 2.24597358e-16 2.14962323e-16)
(10 2.263705517e-16 4.324196173e-17)
(10 -3.96840116e-16 1.786281523e-16)
(10 5.149551437e-16 6.378026141e-17)
(10 -2.928067746e-17 6.775811349e-16)
(10 7.437899866e-17 8.170612549e-17)
(10 1.20485891e-16 3.685129107e-16)
(10 -3.075014399e-16 -5.59438194e-16)
(10 1.075872118e-16 9.977719897e-17)
(10 4.844058251e-16 9.227807417e-17)
(10 -7.870265824e-17 1.425958885e-16)
(10 3.205759572e-17 -2.113892145e-16)
(10 -1.786529443e-16 2.591811557e-16)
(10 -1.643379739e-16 -1.254052675e-16)
(10 1.890051065e-16 -9.857550262e-17)
(10 2.541983512e-16 -5.48167423e-16)
(10 2.123649347e-16 -1.813118531e-16)
(10 3.738828013e-17 -4.696287144e-16)
(10 4.124014879e-16 5.861896182e-16)
(10 1.71554638e-16 8.766530582e-17)
(10 -1.725111729e-16 3.615944973e-16)
(10 -7.761859949e-17 7.60467187e-16)
(10 -3.772514068e-16 4.283187386e-16)
(10 -1.049546754e-16 1.166877183e-16)
(10 3.196293872e-17 -5.235806167e-16)
(10 1.167451009e-17 -4.878826871e-16)
(10 4.873411486e-16 -2.55931895e-16)
(10 1.403666788e-16 -2.826459296e-16)
(10 3.07554474e-16 -7.603867679e-17)
(10 4.558727468e-16 -1.636152999e-16)
(10 1.861304019e-16 4.394334599e-17)
(10 -1.804104551e-18 5.177537895e-16)
(10 -1.322332383e-15 4.480171141e-15)
)
;

boundaryField
{
    left
    {
        type            dirichlet;
        value           uniform (4 0 0);
    }
    right
    {
        type            dirichlet;
        value           uniform (4 0 0);
    }
    sides
    {
        type            empty;
    }
}


// ************************************************************************* //
