/*--------------------------------*- C++ -*----------------------------------*\
| =========                 |                                                 |
| \\      /  F ield         | foam-extend: Open Source CFD                    |
|  \\    /   O peration     | Version:     4.1                                |
|   \\  /    A nd           | Web:         http://www.foam-extend.org         |
|    \\/     M anipulation  |                                                 |
\*---------------------------------------------------------------------------*/
FoamFile
{
    version     2.0;
    format      ascii;
    class       cellScalarField;
    location    "0.1";
    object      T;
}
// * * * * * * * * * * * * * * * * * * * * * * * * * * * * * * * * * * * * * //

dimensions      [0 0 0 0 1 0 0];

internalField   nonuniform 10((8.830508475 2.288135593 -1.271186441) (9.970267165 0.05817293881 -0.03231829934) (9.99924408 0.001478973021 -0.0008216516781) (9.999980782 3.7601009e-05 -2.088944944e-05) (9.999999511 9.559578559e-07 -5.310876977e-07) (9.999999988 2.430401329e-08 -1.35022296e-08) (10 6.178986429e-10 -3.432770238e-10) (10 1.570928753e-11 -8.727381961e-12) (10 3.99388666e-13 -2.218825922e-13) (10 1.051524205e-14 -3.473325354e-15));

boundaryField
{
    left
    {
        type            dirichlet;
        value           uniform (4 0 0);
    }
    right
    {
        type            dirichlet;
        value           uniform (4 0 0);
    }
    sides
    {
        type            empty;
    }
}


// ************************************************************************* //
