/*--------------------------------*- C++ -*----------------------------------*\
| =========                 |                                                 |
| \\      /  F ield         | foam-extend: Open Source CFD                    |
|  \\    /   O peration     | Version:     4.1                                |
|   \\  /    A nd           | Web:         http://www.foam-extend.org         |
|    \\/     M anipulation  |                                                 |
\*---------------------------------------------------------------------------*/
FoamFile
{
    version     2.0;
    format      ascii;
    class       cellScalarField;
    location    "3.2";
    object      T;
}
// * * * * * * * * * * * * * * * * * * * * * * * * * * * * * * * * * * * * * //

dimensions      [0 0 0 0 1 0 0];

internalField   nonuniform 10((3.99999972 -1.195430578e-06 -4.141207215e-07) (4.000030946 7.033774811e-05 4.284340752e-05) (4.000439593 2.759592023e-05 -1.299837449e-05) (4.010873608 0.01844278776 0.01694143752) (4.246541917 0.2731506336 0.08588884959) (5.360207461 0.8498088054 0.07611441942) (7.327274998 1.015761814 -0.04565477002) (8.976072989 0.5933061725 -0.08079890909) (9.735221458 0.1984724974 -0.03972925198) (9.951088803 0.0432301182 -0.01061455848));

boundaryField
{
    left
    {
        type            dirichlet;
        value           uniform (4 0 0);
    }
    right
    {
        type            dirichlet;
        value           uniform (4 0 0);
    }
    sides
    {
        type            empty;
    }
}


// ************************************************************************* //
