/*--------------------------------*- C++ -*----------------------------------*\
| =========                 |                                                 |
| \\      /  F ield         | foam-extend: Open Source CFD                    |
|  \\    /   O peration     | Version:     4.1                                |
|   \\  /    A nd           | Web:         http://www.foam-extend.org         |
|    \\/     M anipulation  |                                                 |
\*---------------------------------------------------------------------------*/
FoamFile
{
    version     2.0;
    format      ascii;
    class       cellScalarField;
    location    "1";
    object      T;
}
// * * * * * * * * * * * * * * * * * * * * * * * * * * * * * * * * * * * * * //

dimensions      [0 0 0 0 1 0 0];

internalField   nonuniform 
100
(
(4.024003932 0.06953876791 0.1268045891)
(5.479418364 1.560083322 0.1764401017)
(8.657511072 1.181153451 -0.2437082876)
(9.850044269 0.1746845261 -0.05605894557)
(9.989612306 0.01346246913 -0.004884052111)
(9.999437462 0.0007729739096 -0.00029868211)
(9.99997375 3.748594807e-05 -1.508880931e-05)
(9.999998891 1.628308321e-06 -6.751325869e-07)
(9.999999956 6.542775278e-08 -2.775352213e-08)
(9.999999998 2.47994042e-09 -1.07117927e-09)
(10 8.980940792e-11 -3.936045387e-11)
(10 3.133009309e-12 -1.388970613e-12)
(10 1.066380328e-13 -4.78622887e-14)
(10 2.496927851e-15 -4.174284215e-16)
(10 -9.41528191e-16 5.339243796e-16)
(10 3.157815433e-16 -2.773292913e-17)
(10 8.261161093e-17 -4.932141783e-16)
(10 1.003543352e-15 -5.101631222e-16)
(10 -1.34943886e-16 7.644322958e-17)
(10 -4.20810915e-18 2.383837905e-18)
(10 -1.312356552e-19 7.434566898e-20)
(10 -4.093988972e-21 2.319371294e-21)
(10 -1.277680772e-22 7.238949276e-23)
(10 -3.98990684e-24 2.26083675e-24)
(10 -1.24731844e-25 7.069428304e-26)
(10 -3.907438591e-27 2.215530672e-27)
(10 -1.228624174e-28 6.971001155e-29)
(10 -3.886676306e-30 2.207424659e-30)
(10 -1.240646617e-31 7.055742702e-32)
(10 -4.008847176e-33 2.283744169e-33)
(10 -1.315116293e-34 7.506400068e-35)
(10 -4.388940426e-36 2.510183909e-36)
(10 -1.490945564e-37 8.54363726e-38)
(10 -5.150063126e-39 2.95603295e-39)
(10 -1.804357678e-40 1.036960673e-40)
(10 -6.389797191e-42 3.675143997e-42)
(10 -2.278481921e-43 1.310963415e-43)
(10 -8.150872267e-45 4.689655229e-45)
(10 -2.915922438e-46 1.67714819e-46)
(10 -1.040502261e-47 5.981325713e-48)
(10 -3.696222834e-49 2.123253004e-49)
(10 -1.305315049e-50 7.49208754e-51)
(10 -4.57832977e-52 2.625500498e-52)
(10 -1.59397191e-53 9.13252493e-54)
(10 -5.506807163e-55 3.15219345e-55)
(10 -1.887614615e-56 1.079527324e-56)
(10 -6.419925845e-58 3.668316146e-58)
(10 -2.166709008e-59 1.236988953e-59)
(10 -7.257778278e-61 4.140103483e-61)
(10 -2.413436621e-62 1.375625896e-62)
(10 -7.969011983e-64 4.538798087e-64)
(10 -2.613498946e-65 1.487460951e-65)
(10 -8.515386111e-67 4.843162505e-67)
(10 -2.757178947e-68 1.567130636e-68)
(10 -8.873938854e-70 5.040640631e-70)
(10 -2.839669522e-71 1.612051913e-71)
(10 -9.03699684e-73 5.127308748e-73)
(10 -2.860791091e-74 1.622247571e-74)
(10 -9.010523407e-76 5.106902148e-76)
(10 -2.824277279e-77 1.599932395e-77)
(10 -8.811403921e-79 4.98925665e-79)
(10 -2.736818134e-80 1.548967097e-80)
(10 -8.464242931e-82 4.788488406e-82)
(10 -2.607028922e-83 1.474274251e-83)
(10 -7.998147632e-85 4.521177206e-85)
(10 -2.444473888e-86 1.381288282e-86)
(10 -7.443837522e-88 4.204741877e-88)
(10 -2.25883046e-89 1.275486756e-89)
(10 -6.831283531e-91 3.856119343e-91)
(10 -2.059238458e-92 1.162027145e-92)
(10 -6.187961449e-94 3.490792525e-94)
(10 -1.853845666e-95 1.04549475e-95)
(10 -5.537714085e-97 3.122161887e-97)
(10 -1.649537278e-98 9.297541902e-99)
(10 -4.900156209e-100 2.76122204e-100)
(10 -1.451822146e-101 8.178888261e-102)
(10 -4.290522998e-103 2.416486607e-103)
(10 -1.264841831e-104 7.122087969e-105)
(10 -3.71985099e-106 2.094098402e-106)
(10 -1.091467466e-107 6.143078572e-108)
(10 -3.195384191e-109 1.798064372e-109)
(10 -9.334522653e-111 5.251509328e-111)
(10 -2.721111137e-112 1.530562387e-112)
(10 -7.916126494e-114 4.451772219e-114)
(10 -2.298356652e-115 1.292277207e-115)
(10 -6.660168738e-117 3.744070608e-117)
(10 -1.926371171e-118 1.082733756e-118)
(10 -5.561660294e-120 3.125441273e-120)
(10 -1.60287842e-121 9.00605958e-122)
(10 -4.611575645e-123 2.590675387e-123)
(10 -1.324557689e-124 7.43988051e-125)
(10 -3.798258884e-126 2.133108638e-126)
(10 -1.087449229e-127 6.106221621e-128)
(10 -3.10857995e-129 1.745269636e-129)
(10 -8.872804592e-131 4.980810445e-131)
(10 -2.528844743e-132 1.41938918e-132)
(10 -7.1971694e-134 4.039083513e-134)
(10 -2.04547859e-135 1.147781786e-135)
(10 -5.805459445e-137 3.257209631e-137)
(10 -1.967337536e-15 3.974842589e-15)
)
;

boundaryField
{
    left
    {
        type            dirichlet;
        value           uniform (4 0 0);
    }
    right
    {
        type            dirichlet;
        value           uniform (4 0 0);
    }
    sides
    {
        type            empty;
    }
}


// ************************************************************************* //
