/*--------------------------------*- C++ -*----------------------------------*\
| =========                 |                                                 |
| \\      /  F ield         | foam-extend: Open Source CFD                    |
|  \\    /   O peration     | Version:     4.1                                |
|   \\  /    A nd           | Web:         http://www.foam-extend.org         |
|    \\/     M anipulation  |                                                 |
\*---------------------------------------------------------------------------*/
FoamFile
{
    version     2.0;
    format      ascii;
    class       cellScalarField;
    location    "34";
    object      T;
}
// * * * * * * * * * * * * * * * * * * * * * * * * * * * * * * * * * * * * * //

dimensions      [0 0 0 0 1 0 0];

internalField   nonuniform 
100
(
(4 -5.703630593e-17 1.624202108e-17)
(4 -6.732353256e-17 1.083323543e-16)
(4 -9.85618067e-17 1.965904568e-17)
(4 1.844617902e-16 -1.876664604e-16)
(4 8.41302364e-17 3.075351576e-17)
(4 -4.20519859e-16 2.565486484e-16)
(4 2.500419078e-16 1.110837561e-17)
(4 -2.138236491e-16 -3.130950752e-16)
(4 9.220987981e-16 -5.718745068e-17)
(4 -1.459448101e-15 -1.775008689e-17)
(4 2.942789612e-16 7.283025074e-17)
(4 -1.326392146e-16 -1.88801972e-16)
(4 1.035725714e-15 4.135513684e-17)
(4 -4.167652835e-16 -3.840106703e-16)
(4 7.844120367e-16 9.194041261e-20)
(4 -5.36923149e-16 -2.579484896e-16)
(4 5.040234707e-16 2.657250054e-17)
(4 -4.388161436e-16 2.138022286e-16)
(4 -1.816735847e-16 -8.015941233e-17)
(4 -8.821794619e-17 -1.141095069e-17)
(4 1.16889669e-16 -5.544853706e-17)
(4 -6.847821536e-17 6.3213223e-17)
(4 4.930068315e-16 1.961205947e-16)
(4 -6.222752899e-16 3.313658704e-17)
(4 4.265082532e-16 5.522088883e-17)
(4 -4.6631508e-16 2.641250856e-16)
(4 -8.265560022e-17 3.390869315e-17)
(4 6.752280564e-17 1.154490619e-16)
(4 -5.869828505e-16 5.098090714e-17)
(4 4.201811798e-16 -1.095562088e-17)
(4 -2.422946419e-16 -1.089258359e-16)
(4 -7.32463541e-17 -5.19328156e-18)
(4 6.035659118e-18 2.899365148e-16)
(4 -4.664210776e-16 -3.311688535e-19)
(4 8.811734542e-16 1.830724463e-16)
(4 -9.151344703e-16 3.638908242e-16)
(4 4.719683327e-16 -4.467032316e-17)
(4 -1.672243549e-16 -1.298961809e-17)
(4 2.66717075e-16 1.561834449e-16)
(4 -3.288178481e-17 3.308441089e-17)
(4 -2.307717388e-16 2.775725249e-16)
(4 4.868674687e-15 3.092838917e-15)
(4 5.829452059e-14 2.968869698e-14)
(4 5.866478871e-13 2.785157189e-13)
(4 5.381347921e-12 2.465901835e-12)
(4 4.601241611e-11 2.020539688e-11)
(4 3.642486779e-10 1.526334088e-10)
(4.000000003 2.656248653e-09 1.056325246e-09)
(4.00000002 1.773784896e-08 6.651939152e-09)
(4.000000127 1.077683416e-07 3.783648579e-08)
(4.000000732 5.919272802e-07 1.930888216e-07)
(4.000003818 2.923683588e-06 8.79561377e-07)
(4.000017952 1.294040233e-05 3.565447215e-06)
(4.000075996 5.124300003e-05 1.284730492e-05)
(4.000289598 0.000181569072 4.116321116e-05)
(4.000994644 0.0005764707275 0.0001174262401)
(4.003085892 0.001643701728 0.0002987762319)
(4.008673833 0.004220732968 0.0006792930477)
(4.02216312 0.009790361084 0.001382295046)
(4.051669805 0.02057913146 0.002520219428)
(4.110333134 0.03932258921 0.00411742125)
(4.216657231 0.06851449729 0.006019535603)
(4.392847774 0.1091792635 0.007844393896)
(4.660542112 0.1595705671 0.00903507633)
(5.034453757 0.2144869382 0.00903394105)
(5.515831573 0.2658324641 0.007520361388)
(6.088432567 0.3045392325 0.004594565778)
(6.719213634 0.3232390681 0.0007974830811)
(7.364169841 0.3185803169 -0.003061045073)
(7.977546843 0.2921817562 -0.006186933385)
(8.521235853 0.2498675347 -0.0080618279)
(8.97126659 0.1996342076 -0.008565448359)
(9.31977298 0.1492930773 -0.007931220814)
(9.572722022 0.1046895538 -0.006589867395)
(9.745090063 0.06895664583 -0.004991932891)
(9.855549476 0.0427347498 -0.003482112547)
(9.922225099 0.02495839587 -0.002252099429)
(9.960193549 0.01375807576 -0.001357451228)
(9.980621359 0.007168986139 -0.0007655947053)
(9.991020456 0.003536308303 -0.00040536418)
(9.996036453 0.001653671356 -0.0002020606232)
(9.998332084 0.0007340936608 -9.505410046e-05)
(9.999330264 0.0003097679387 -4.229219622e-05)
(9.999743159 0.0001244135212 -1.783233974e-05)
(9.999905843 4.762037431e-05 -7.138441668e-06)
(9.999966972 1.739183162e-05 -2.717546196e-06)
(9.999988905 6.067979088e-06 -9.85401644e-07)
(9.999996427 2.024856469e-06 -3.408451566e-07)
(9.999998896 6.469752528e-07 -1.126208983e-07)
(9.999999672 1.9815418e-07 -3.559422586e-08)
(9.999999907 5.823810627e-08 -1.077439987e-08)
(9.999999974 1.644196016e-08 -3.127448398e-09)
(9.999999993 4.463592677e-09 -8.715235392e-10)
(9.999999998 1.166354768e-09 -2.334265661e-10)
(10 2.936351316e-10 -6.015516441e-11)
(10 7.129206101e-11 -1.493233601e-11)
(10 1.670405732e-11 -3.574232583e-12)
(10 3.782086786e-12 -8.254076527e-13)
(10 8.264527314e-13 -1.843775835e-13)
(10 1.704987766e-13 -3.526242709e-14)
)
;

boundaryField
{
    left
    {
        type            dirichlet;
        value           uniform (4 0 0);
    }
    right
    {
        type            dirichlet;
        value           uniform (4 0 0);
    }
    sides
    {
        type            empty;
    }
}


// ************************************************************************* //
