/*--------------------------------*- C++ -*----------------------------------*\
| =========                 |                                                 |
| \\      /  F ield         | foam-extend: Open Source CFD                    |
|  \\    /   O peration     | Version:     4.1                                |
|   \\  /    A nd           | Web:         http://www.foam-extend.org         |
|    \\/     M anipulation  |                                                 |
\*---------------------------------------------------------------------------*/
FoamFile
{
    version     2.0;
    format      ascii;
    class       cellScalarField;
    location    "1.3";
    object      T;
}
// * * * * * * * * * * * * * * * * * * * * * * * * * * * * * * * * * * * * * //

dimensions      [0 0 0 0 1 0 0];

internalField   nonuniform 10((3.997706215 -0.007507930919 0.01487086591) (4.397688377 0.6166877801 0.2436802566) (6.849104949 1.606738762 -0.06944120358) (9.250172086 0.6772243821 -0.1556101663) (9.912610242 0.09792037529 -0.03031131042) (9.99316376 0.008491196651 -0.002958221671) (9.999577812 0.0005575399117 -0.0002075045519) (9.999977667 3.074098504e-05 -1.194978565e-05) (9.999998941 1.502955528e-06 -6.028699563e-07) (9.999999954 6.728973173e-08 -2.764685409e-08));

boundaryField
{
    left
    {
        type            dirichlet;
        value           uniform (4 0 0);
    }
    right
    {
        type            dirichlet;
        value           uniform (4 0 0);
    }
    sides
    {
        type            empty;
    }
}


// ************************************************************************* //
