/*--------------------------------*- C++ -*----------------------------------*\
| =========                 |                                                 |
| \\      /  F ield         | foam-extend: Open Source CFD                    |
|  \\    /   O peration     | Version:     4.1                                |
|   \\  /    A nd           | Web:         http://www.foam-extend.org         |
|    \\/     M anipulation  |                                                 |
\*---------------------------------------------------------------------------*/
FoamFile
{
    version     2.0;
    format      ascii;
    class       cellScalarField;
    location    "4.8";
    object      T;
}
// * * * * * * * * * * * * * * * * * * * * * * * * * * * * * * * * * * * * * //

dimensions      [0 0 0 0 1 0 0];

internalField   nonuniform 
100
(
(4 -4.439768446e-10 -8.889380262e-11)
(4.000000013 2.979031186e-08 1.11197016e-08)
(3.999999985 -3.598942396e-07 -4.418053242e-08)
(4.000008636 1.720227562e-05 1.240143964e-05)
(4.000179035 0.00014871714 4.942378551e-05)
(4.002376363 0.003107929659 0.002727020781)
(4.047172079 0.05562330507 0.02377323766)
(4.36391524 0.2939358153 0.06208803239)
(5.341941523 0.6851695207 0.05363965482)
(6.936900735 0.8564066236 -0.01347233619)
(8.477723151 0.6443854501 -0.05582845035)
(9.433459547 0.3172430297 -0.04495318761)
(9.839455576 0.109362293 -0.02023515755)
(9.964359852 0.02797541782 -0.006138243462)
(9.993602746 0.005580552938 -0.001378224303)
(9.999043187 0.0009048828811 -0.0002437040435)
(9.99987755 0.0001233825109 -3.549861917e-05)
(9.999986286 1.453938447e-05 -4.406390942e-06)
(9.999998631 1.513640511e-06 -4.784093494e-07)
(9.999999876 1.417043906e-07 -4.636781243e-08)
(9.99999999 1.210244989e-08 -4.07720499e-09)
(9.999999999 9.541164682e-10 -3.295294449e-10)
(10 7.010883938e-11 -2.474007399e-11)
(10 4.8388199e-12 -1.740303928e-12)
(10 3.166341437e-13 -1.156398626e-13)
(10 1.828246142e-14 -6.966912755e-15)
(10 -1.203225351e-15 -1.656195614e-16)
(10 1.726181489e-15 -4.355467659e-17)
(10 -1.766765122e-15 5.452561136e-16)
(10 8.639350766e-16 -8.960867554e-16)
(10 1.64635006e-16 -1.064717883e-17)
(10 -4.216910173e-16 3.561066237e-16)
(10 1.779452619e-16 1.799407616e-17)
(10 -1.798014429e-16 -1.857526855e-16)
(10 1.051981036e-16 5.322369439e-16)
(10 -1.450333698e-16 5.751113932e-17)
(10 -2.494354657e-16 -1.233331915e-16)
(10 -1.688135389e-16 -1.02744266e-17)
(10 -4.054683083e-17 7.827228801e-16)
(10 -1.962845178e-16 2.968861095e-16)
(10 -4.527912215e-16 2.842342164e-16)
(10 8.517727154e-18 3.109484254e-17)
(10 -5.821680896e-17 2.011315274e-16)
(10 -1.575996268e-16 4.256786309e-17)
(10 -7.511947875e-17 -4.617334174e-16)
(10 2.315652255e-16 -3.373756552e-16)
(10 1.914212538e-16 -5.530711089e-16)
(10 -3.754423464e-17 -3.116279267e-16)
(10 4.619326547e-17 3.20197965e-16)
(10 -4.965320512e-17 -5.651813039e-18)
(10 3.232626165e-16 3.50258352e-16)
(10 -4.601928857e-16 -7.640301957e-17)
(10 2.618813494e-16 2.949202433e-17)
(10 -1.365865064e-16 -1.744219838e-17)
(10 2.188364463e-16 -5.564608176e-16)
(10 1.000862123e-15 -5.078880214e-16)
(10 -1.354184949e-16 7.67388769e-17)
(10 -4.236895985e-18 2.400961845e-18)
(10 -1.325615648e-19 7.511991338e-20)
(10 -4.147510002e-21 2.350308647e-21)
(10 -1.297649077e-22 7.353510527e-23)
(10 -4.060009803e-24 2.300724083e-24)
(10 -1.270272518e-25 7.198373197e-26)
(10 -3.974355601e-27 2.252185608e-27)
(10 -1.243473524e-28 7.046508807e-29)
(10 -3.890508449e-30 2.204671151e-30)
(10 -1.217239909e-31 6.897848307e-32)
(10 -3.808430225e-33 2.158159109e-33)
(10 -1.191559747e-34 6.752324105e-35)
(10 -3.728083609e-36 2.112628333e-36)
(10 -1.16642136e-37 6.609870033e-38)
(10 -3.649432069e-39 2.068058123e-39)
(10 -1.141813318e-40 6.470421321e-41)
(10 -3.572439844e-42 2.024428212e-42)
(10 -1.117724433e-43 6.333914564e-44)
(10 -3.497071927e-45 1.981718763e-45)
(10 -1.094143753e-46 6.200287697e-47)
(10 -3.42329405e-48 1.939910357e-48)
(10 -1.071060555e-49 6.069479961e-50)
(10 -3.351072669e-51 1.898983985e-51)
(10 -1.048464345e-52 5.941431881e-53)
(10 -3.280374945e-54 1.858921038e-54)
(10 -1.026344847e-55 5.816085238e-56)
(10 -3.211168734e-57 1.819703301e-57)
(10 -1.004692006e-58 5.693383038e-59)
(10 -3.143422569e-60 1.781312942e-60)
(10 -9.834959756e-62 5.573269491e-62)
(10 -3.077105648e-63 1.743732507e-63)
(10 -9.627471188e-65 5.455689985e-65)
(10 -3.012187818e-66 1.706944907e-66)
(10 -9.424360014e-68 5.340591059e-68)
(10 -2.948639562e-69 1.670933417e-69)
(10 -9.225533886e-71 5.22792038e-71)
(10 -2.886431987e-72 1.635681663e-72)
(10 -9.030902402e-74 5.117626719e-74)
(10 -2.825536807e-75 1.601173617e-75)
(10 -8.840377066e-77 5.009659929e-77)
(10 -2.765926336e-78 1.567393588e-78)
(10 -8.653871251e-80 4.903970918e-80)
(10 -1.717468714e-15 4.185027129e-15)
)
;

boundaryField
{
    left
    {
        type            dirichlet;
        value           uniform (4 0 0);
    }
    right
    {
        type            dirichlet;
        value           uniform (4 0 0);
    }
    sides
    {
        type            empty;
    }
}


// ************************************************************************* //
