/*--------------------------------*- C++ -*----------------------------------*\
| =========                 |                                                 |
| \\      /  F ield         | foam-extend: Open Source CFD                    |
|  \\    /   O peration     | Version:     4.1                                |
|   \\  /    A nd           | Web:         http://www.foam-extend.org         |
|    \\/     M anipulation  |                                                 |
\*---------------------------------------------------------------------------*/
FoamFile
{
    version     2.0;
    format      ascii;
    class       cellScalarField;
    location    "1";
    object      T;
}
// * * * * * * * * * * * * * * * * * * * * * * * * * * * * * * * * * * * * * //

dimensions      [0 0 0 0 1 0 0];

internalField   nonuniform 
100
(
(4.994164587 -0.01130334785 7.198272868e-05)
(4.966080253 -0.01131011321 1.640948806e-07)
(4.93780057 -0.01138924432 1.691177142e-07)
(4.909323568 -0.01146892399 1.71459064e-07)
(4.880647881 -0.01154915877 1.738326825e-07)
(4.851772131 -0.01162995252 1.762389017e-07)
(4.822694934 -0.01171130902 1.786778997e-07)
(4.793414894 -0.01179323226 1.811505667e-07)
(4.763930605 -0.01187572606 1.836568554e-07)
(4.734240653 -0.01195879439 1.861975932e-07)
(4.704343615 -0.01204244126 1.88773182e-07)
(4.674238056 -0.01212667063 1.913839504e-07)
(4.643922532 -0.01221148652 1.940304541e-07)
(4.613395591 -0.01229689297 1.96713181e-07)
(4.582655768 -0.01238289412 1.994327066e-07)
(4.55170159 -0.01246949393 2.021891433e-07)
(4.520531574 -0.01255669672 2.049836909e-07)
(4.489144227 -0.0126445065 2.078160944e-07)
(4.457538044 -0.01273292751 2.106873306e-07)
(4.425711512 -0.01282196399 2.135978496e-07)
(4.393663106 -0.01291162019 2.165481876e-07)
(4.361391292 -0.01300190029 2.19538558e-07)
(4.328894524 -0.01309280871 2.225700653e-07)
(4.296171247 -0.01318434974 2.256428637e-07)
(4.263219896 -0.01327652768 2.287574219e-07)
(4.230038892 -0.01336934703 2.319147969e-07)
(4.196626649 -0.01346281209 2.351149031e-07)
(4.162981567 -0.01355692736 2.383588003e-07)
(4.129102039 -0.01365169765 2.416477723e-07)
(4.094986442 -0.0137471268 2.449798845e-07)
(4.060633148 -0.01384321953 2.483577918e-07)
(4.026040513 -0.01393998116 2.51783789e-07)
(3.991206883 -0.01403741511 2.552532269e-07)
(3.956130595 -0.01413552735 2.587735621e-07)
(3.920809971 -0.01423432096 2.623374968e-07)
(3.885243326 -0.01433380223 2.659543128e-07)
(3.849428959 -0.01443397489 2.69617578e-07)
(3.813365161 -0.01453484393 2.733313479e-07)
(3.77705021 -0.01463641404 2.770953037e-07)
(3.740482372 -0.01473869022 2.809109054e-07)
(3.703659902 -0.01484167777 2.847797092e-07)
(3.666581043 -0.01494538041 2.886977014e-07)
(3.629244026 -0.0150498041 2.926718704e-07)
(3.59164707 -0.0151549535 2.96699188e-07)
(3.55378838 -0.01526083359 3.007811901e-07)
(3.515666154 -0.01536744904 3.049175268e-07)
(3.477278572 -0.01547480547 3.091116674e-07)
(3.438623805 -0.01558290754 3.133614071e-07)
(3.399700012 -0.01569176087 3.176702777e-07)
(3.360505336 -0.01580136978 3.22035045e-07)
(3.321037912 -0.01591174054 3.264621886e-07)
(3.281295859 -0.01602287779 3.309475797e-07)
(3.241277286 -0.01613478616 3.354917638e-07)
(3.200980286 -0.01624747256 3.40102436e-07)
(3.160402941 -0.01636094065 3.447703508e-07)
(3.119543322 -0.01647519668 3.495041333e-07)
(3.078399483 -0.01659024624 3.543025735e-07)
(3.036969467 -0.01670609428 3.591643497e-07)
(2.995251304 -0.01682274639 3.640922016e-07)
(2.953243009 -0.01694020816 3.690868791e-07)
(2.910942587 -0.01705848517 3.741491386e-07)
(2.868348027 -0.017177583 3.792797427e-07)
(2.825457303 -0.01729750722 3.844794599e-07)
(2.782268379 -0.01741826342 3.897490502e-07)
(2.738779203 -0.01753985748 3.9509036e-07)
(2.69498771 -0.01766229528 4.005042343e-07)
(2.650891821 -0.01778558208 4.059892722e-07)
(2.606489441 -0.0179097244 4.115506733e-07)
(2.561778465 -0.01803472715 4.171837588e-07)
(2.516756771 -0.01816059717 4.228959613e-07)
(2.471422223 -0.01828734 4.286837422e-07)
(2.425772671 -0.01841496184 4.345502105e-07)
(2.37980595 -0.01854346791 4.404927814e-07)
(2.333519881 -0.01867286535 4.465191409e-07)
(2.286912272 -0.01880315969 4.526245466e-07)
(2.239980912 -0.01893435712 4.588121622e-07)
(2.19272358 -0.01906646347 4.650816608e-07)
(2.145138037 -0.0191994862 4.714399116e-07)
(2.09722203 -0.01933342986 4.778772488e-07)
(2.04897329 -0.01946830222 4.844063916e-07)
(2.000389534 -0.01960410846 4.910188151e-07)
(1.951468464 -0.01974085602 4.977238541e-07)
(1.902207765 -0.0198785504 5.045152618e-07)
(1.852605108 -0.02001719903 5.114013228e-07)
(1.802658146 -0.0201568074 5.183757262e-07)
(1.752364521 -0.0202973826 5.254455441e-07)
(1.701721855 -0.02043893141 5.326106243e-07)
(1.650727754 -0.02058146059 5.398721098e-07)
(1.59937981 -0.02072497561 5.472258545e-07)
(1.5476756 -0.02086948516 5.546856343e-07)
(1.495612681 -0.02101499439 5.622386279e-07)
(1.443188597 -0.02116151067 5.69894744e-07)
(1.390400875 -0.02130904076 5.776525105e-07)
(1.337247023 -0.02145759236 5.855170271e-07)
(1.283724536 -0.02160717154 5.934829302e-07)
(1.229830889 -0.02175778537 6.015551875e-07)
(1.175563543 -0.0219094412 6.097363059e-07)
(1.120919941 -0.02206214607 6.180284915e-07)
(1.065897507 -0.02221592294 6.104904754e-07)
(1.01049544 -0.02226310847 0.0001082902565)
)
;

boundaryField
{
    left
    {
        type            dirichlet;
        value           uniform (5 0 0);
    }
    right
    {
        type            dirichlet;
        value           uniform (1 0 0);
    }
    sides
    {
        type            empty;
    }
}


// ************************************************************************* //
