/*--------------------------------*- C++ -*----------------------------------*\
| =========                 |                                                 |
| \\      /  F ield         | foam-extend: Open Source CFD                    |
|  \\    /   O peration     | Version:     4.1                                |
|   \\  /    A nd           | Web:         http://www.foam-extend.org         |
|    \\/     M anipulation  |                                                 |
\*---------------------------------------------------------------------------*/
FoamFile
{
    version     2.0;
    format      ascii;
    class       cellScalarField;
    location    "23.9";
    object      T;
}
// * * * * * * * * * * * * * * * * * * * * * * * * * * * * * * * * * * * * * //

dimensions      [0 0 0 0 1 0 0];

internalField   nonuniform 
100
(
(4 -5.703630593e-17 1.624202108e-17)
(4 5.350852496e-17 1.001776565e-16)
(4 -1.516598544e-16 -1.196816379e-16)
(4 -2.293321095e-17 1.53679848e-16)
(4 9.869795806e-18 -2.460624612e-17)
(4 -3.415794814e-16 -3.427595272e-17)
(4 4.228813568e-16 5.863561789e-17)
(4 -5.188194504e-16 2.53904846e-16)
(4 7.758426691e-16 2.600387269e-18)
(4 -1.258895947e-15 -2.409416283e-17)
(4 3.447754176e-16 -4.116460825e-17)
(4 8.337126723e-16 2.880132489e-17)
(4 -9.59462399e-16 8.217519888e-17)
(4 4.597782814e-16 -1.745684074e-16)
(4 3.797425958e-17 2.972940039e-16)
(4 -4.886274296e-16 -1.418769191e-16)
(4 7.93291407e-16 2.086860142e-17)
(4 -1.090403026e-15 -2.774194491e-16)
(4 1.220161705e-15 9.889480411e-17)
(4 -9.865328892e-16 -3.052253441e-16)
(4 9.161002536e-16 -4.645506431e-18)
(4 -9.251768271e-16 1.100000632e-16)
(4 7.600383192e-16 -3.001687437e-16)
(4 -7.837670681e-16 4.089506191e-16)
(4 1.110133236e-15 3.430217174e-16)
(4 7.497451046e-15 4.25474296e-15)
(4 1.00085708e-13 5.650582314e-14)
(4 1.311080123e-12 7.199814239e-13)
(4 1.588628668e-11 8.371296366e-12)
(4 1.768309705e-10 8.942317195e-11)
(4.000000002 1.80460314e-09 8.696463655e-10)
(4.000000017 1.671483202e-08 7.619244688e-09)
(4.000000145 1.394486375e-07 5.972270901e-08)
(4.000001123 1.038977302e-06 4.132900345e-07)
(4.000007757 6.809451458e-06 2.474720974e-06)
(4.000046918 3.858912343e-05 1.259500353e-05)
(4.000245703 0.0001867946492 5.394248086e-05)
(4.001107354 0.0007685764388 0.0001938994391)
(4.004293971 0.002690567522 0.000586056218)
(4.014380087 0.008049434944 0.001494969658)
(4.04184574 0.0207068875 0.003230479539)
(4.106590156 0.04611152082 0.005927035389)
(4.239552475 0.08948812059 0.009226954627)
(4.478923631 0.1523267929 0.01211282605)
(4.858937236 0.2288046787 0.01317377797)
(5.393891016 0.3049803178 0.0113177659)
(6.065111893 0.3626287267 0.006515794693)
(6.819395649 0.3864916053 8.299872633e-06)
(7.581951337 0.3709068519 -0.006247151289)
(8.278413372 0.321860754 -0.01053197868)
(8.855342382 0.2535526801 -0.01209460991)
(9.29041095 0.1820055726 -0.01125734365)
(9.590139153 0.1194672961 -0.008988687023)
(9.779407906 0.07194738424 -0.006325730106)
(9.889305843 0.03988107736 -0.003986021368)
(9.948159773 0.02040921931 -0.002272831144)
(9.977313676 0.009670713328 -0.001181837838)
(9.990709272 0.004254770924 -0.0005638388609)
(9.996433716 0.001742786746 -0.0002480510626)
(9.998714731 0.0006663196712 -0.0001010615067)
(9.999564349 0.0002383795492 -3.827671911e-05)
(9.999860871 7.999095379e-05 -1.352278076e-05)
(9.999958062 2.523466413e-05 -4.470205011e-06)
(9.999988047 7.500693692e-06 -1.38663412e-06)
(9.999996773 2.105133238e-06 -4.046925907e-07)
(9.999999173 5.590165797e-07 -1.114036748e-07)
(9.999999799 1.407330577e-07 -2.899361109e-08)
(9.999999953 3.365278631e-08 -7.149808366e-09)
(9.99999999 7.657640726e-09 -1.674114402e-09)
(9.999999998 1.661049641e-09 -3.729389416e-10)
(10 3.440480599e-10 -7.91908584e-11)
(10 6.815743447e-11 -1.605794409e-11)
(10 1.293017089e-11 -3.11458397e-12)
(10 2.355411226e-12 -5.791402653e-13)
(10 4.097928595e-13 -1.022753474e-13)
(10 6.727901721e-14 -1.803057588e-14)
(10 1.465729832e-14 -2.989974756e-15)
(10 1.37555241e-16 -5.577253677e-17)
(10 -7.691424009e-17 -1.250812647e-16)
(10 -1.796590379e-17 -1.916296802e-16)
(10 1.015487481e-16 -4.806624011e-16)
(10 -3.843871248e-16 1.440667424e-16)
(10 -1.994406615e-16 6.553243099e-16)
(10 -1.670368489e-16 2.559419957e-16)
(10 -5.022941474e-16 4.6375327e-16)
(10 -4.018543554e-17 9.125973169e-17)
(10 2.086478183e-17 -9.78340152e-17)
(10 6.528641277e-17 -7.260225537e-17)
(10 1.852127984e-16 -4.789858704e-16)
(10 -1.391865836e-16 -3.832748839e-16)
(10 3.165022853e-16 -1.471697561e-16)
(10 2.023909082e-16 1.3364681e-16)
(10 -3.648096454e-16 6.661428869e-17)
(10 -4.496494292e-16 -4.125090647e-17)
(10 4.073546975e-16 -3.790484167e-18)
(10 8.282401221e-17 1.435230157e-16)
(10 -1.724117704e-16 -1.907560096e-17)
(10 -3.196687866e-16 -3.064391291e-18)
(10 2.06957244e-16 -6.620151818e-16)
(10 -1.56728598e-15 3.560514029e-15)
)
;

boundaryField
{
    left
    {
        type            dirichlet;
        value           uniform (4 0 0);
    }
    right
    {
        type            dirichlet;
        value           uniform (4 0 0);
    }
    sides
    {
        type            empty;
    }
}


// ************************************************************************* //
