/*--------------------------------*- C++ -*----------------------------------*\
| =========                 |                                                 |
| \\      /  F ield         | foam-extend: Open Source CFD                    |
|  \\    /   O peration     | Version:     4.1                                |
|   \\  /    A nd           | Web:         http://www.foam-extend.org         |
|    \\/     M anipulation  |                                                 |
\*---------------------------------------------------------------------------*/
FoamFile
{
    version     2.0;
    format      ascii;
    class       cellScalarField;
    location    "4.6";
    object      T;
}
// * * * * * * * * * * * * * * * * * * * * * * * * * * * * * * * * * * * * * //

dimensions      [0 0 0 0 1 0 0];

internalField   nonuniform 10((4 -8.330801252e-10 6.083124148e-10) (4.00000004 6.246873654e-08 -8.555196078e-09) (3.999999782 -6.648130464e-07 7.814840245e-07) (4.000028971 4.714329254e-05 2.061235144e-05) (4.000338486 0.0002369936397 0.0001829958962) (4.006578592 0.009208808386 0.006703530164) (4.104426415 0.1120585981 0.0390287623) (4.629330554 0.4441933148 0.07100866565) (5.913734102 0.8156017429 0.03175637698) (7.613622376 0.8232939435 -0.03963172703));

boundaryField
{
    left
    {
        type            dirichlet;
        value           uniform (4 0 0);
    }
    right
    {
        type            dirichlet;
        value           uniform (4 0 0);
    }
    sides
    {
        type            empty;
    }
}


// ************************************************************************* //
