/*--------------------------------*- C++ -*----------------------------------*\
| =========                 |                                                 |
| \\      /  F ield         | foam-extend: Open Source CFD                    |
|  \\    /   O peration     | Version:     4.1                                |
|   \\  /    A nd           | Web:         http://www.foam-extend.org         |
|    \\/     M anipulation  |                                                 |
\*---------------------------------------------------------------------------*/
FoamFile
{
    version     2.0;
    format      ascii;
    class       cellScalarField;
    location    "19.3";
    object      T;
}
// * * * * * * * * * * * * * * * * * * * * * * * * * * * * * * * * * * * * * //

dimensions      [0 0 0 0 1 0 0];

internalField   nonuniform 
100
(
(4 -5.703630593e-17 1.624202108e-17)
(4 -2.239711723e-16 -4.278224076e-17)
(4 5.192532731e-17 -5.322042688e-17)
(4 -3.931056533e-17 -3.040586096e-17)
(4 3.677177642e-17 -2.60036936e-17)
(4 -3.21072332e-16 1.407918864e-16)
(4 4.125246201e-17 2.068002357e-16)
(4 -3.358439502e-16 -1.795980815e-16)
(4 9.110699411e-16 -2.774351996e-16)
(4 -1.534261917e-15 7.666589076e-17)
(4 2.591874206e-16 -1.307465156e-16)
(4 9.220892734e-16 1.504582037e-16)
(4 -4.296149045e-16 -6.869758167e-17)
(4 3.510538193e-16 -8.313043476e-17)
(4 2.788905299e-16 -2.23249516e-16)
(4 1.392855092e-15 3.019381508e-16)
(4 4.000962545e-16 -5.480456861e-16)
(4 6.934853437e-16 8.13290463e-16)
(4 7.511477459e-15 6.567287265e-15)
(4 1.654385328e-13 1.000755668e-13)
(4 2.586135279e-12 1.545283736e-12)
(4 3.725107704e-11 2.104471789e-11)
(4 4.790922032e-10 2.602931722e-10)
(4.000000005 5.65649691e-09 2.936841361e-09)
(4.000000058 5.996293691e-08 2.923739064e-08)
(4.00000056 5.622853802e-07 2.56903082e-07)
(4.000004842 4.663861958e-06 1.974588553e-06)
(4.000036703 3.348507284e-05 1.27797098e-05)
(4.000237727 0.0002011447695 6.722095533e-05)
(4.001286913 0.0009887656124 0.0002828966618)
(4.005772145 0.003955393073 0.0009518127096)
(4.021502105 0.01293992872 0.00257444432)
(4.067098137 0.03495012996 0.005632715452)
(4.177401829 0.07878359382 0.0100018439)
(4.402346805 0.1498008822 0.01436536977)
(4.792786374 0.2426568295 0.01639922691)
(5.374729277 0.3379127022 0.01407382876)
(6.12563468 0.4078720098 0.007257830298)
(6.970702188 0.4299341678 -0.001821000506)
(7.805826544 0.3984846138 -0.00982268378)
(8.535087448 0.3268046777 -0.0142564987)
(9.101072869 0.2385426573 -0.01462349153)
(9.49359641 0.1558142137 -0.01212433324)
(9.738088765 0.09154316632 -0.008537114771)
(9.875517649 0.04860815989 -0.005236567293)
(9.945544867 0.02343315699 -0.002842674368)
(9.978030874 0.01030064368 -0.001380980604)
(9.991807477 0.00414564915 -0.0006055358638)
(9.997169136 0.001533608594 -0.0002413288633)
(9.999091286 0.0005234218037 -8.793618884e-05)
(9.999728309 0.000165406538 -2.944879192e-05)
(9.999924143 4.856192063e-05 -9.105917554e-06)
(9.99998017 1.328903646e-05 -2.610754664e-06)
(9.999995134 3.400115221e-06 -6.967453695e-07)
(9.999998876 8.157976921e-07 -1.737006669e-07)
(9.999999755 1.840714396e-07 -4.058761233e-08)
(9.99999995 3.916282884e-08 -8.916616762e-09)
(9.99999999 7.876949072e-09 -1.847079765e-09)
(9.999999998 1.501403316e-09 -3.617736145e-10)
(10 2.718332912e-10 -6.716973234e-11)
(10 4.685078177e-11 -1.185039263e-11)
(10 7.705183792e-12 -1.991906846e-12)
(10 1.205982544e-12 -3.201279789e-13)
(10 1.794144764e-13 -4.894595539e-14)
(10 2.654865385e-14 -6.399331018e-15)
(10 6.410282173e-15 -1.722375993e-15)
(10 -8.984884184e-16 5.557298728e-16)
(10 -2.732121025e-16 -4.277941556e-16)
(10 4.755166239e-17 4.680433313e-17)
(10 -1.916572262e-16 4.234309348e-16)
(10 -3.102274285e-16 -6.313471715e-17)
(10 -1.378741596e-16 -2.668013867e-16)
(10 -3.000932516e-17 2.246433346e-16)
(10 3.286103473e-16 -3.065345433e-16)
(10 -1.32189886e-16 2.339232975e-16)
(10 8.89512505e-17 1.603356836e-16)
(10 -1.671906737e-16 -3.597269369e-16)
(10 5.613225403e-17 -6.49742498e-17)
(10 3.696938885e-16 -4.749508199e-17)
(10 1.957684601e-16 3.574240969e-16)
(10 -2.075319414e-16 6.704986049e-17)
(10 4.205850042e-16 1.458057206e-16)
(10 -5.533694227e-16 2.793443385e-16)
(10 -2.456444997e-16 5.70920141e-16)
(10 -5.326697087e-16 4.660027288e-17)
(10 -2.085918961e-16 1.495951127e-16)
(10 -4.381947403e-16 2.221436496e-16)
(10 -4.287818311e-16 9.606022939e-17)
(10 1.923052686e-17 2.386305682e-16)
(10 -7.562165439e-17 1.128156078e-16)
(10 3.11074851e-16 -5.716016722e-16)
(10 -8.492672553e-17 3.038142639e-16)
(10 -1.408664971e-16 -3.375927238e-17)
(10 5.910575254e-16 3.42292075e-16)
(10 -3.091846357e-16 7.540175048e-16)
(10 -3.621260614e-16 1.018059194e-16)
(10 -1.349770122e-16 4.936361178e-16)
(10 -5.613145956e-16 4.721093541e-16)
(10 -1.294308072e-16 -5.753296486e-16)
(10 -2.273560945e-16 3.331795875e-15)
)
;

boundaryField
{
    left
    {
        type            dirichlet;
        value           uniform (4 0 0);
    }
    right
    {
        type            dirichlet;
        value           uniform (4 0 0);
    }
    sides
    {
        type            empty;
    }
}


// ************************************************************************* //
