/*--------------------------------*- C++ -*----------------------------------*\
| =========                 |                                                 |
| \\      /  F ield         | foam-extend: Open Source CFD                    |
|  \\    /   O peration     | Version:     4.1                                |
|   \\  /    A nd           | Web:         http://www.foam-extend.org         |
|    \\/     M anipulation  |                                                 |
\*---------------------------------------------------------------------------*/
FoamFile
{
    version     2.0;
    format      ascii;
    class       cellScalarField;
    location    "2.3";
    object      T;
}
// * * * * * * * * * * * * * * * * * * * * * * * * * * * * * * * * * * * * * //

dimensions      [0 0 0 0 1 0 0];

internalField   nonuniform 10((4.000082685 0.000178514375 7.163981278e-05) (4.000328498 -0.001412576876 0.000419863214) (4.04911959 0.08810786065 0.0632341391) (4.795104378 0.7440597925 0.1380557989) (6.899210982 1.225056868 -0.03553423435) (8.918212113 0.7119359318 -0.1103098658) (9.77340113 0.1958797917 -0.04561288622) (9.968187602 0.03211365518 -0.009036608643) (9.996659008 0.003715407131 -0.001164632287) (9.999716014 0.0003372890349 -0.0001133949885));

boundaryField
{
    left
    {
        type            dirichlet;
        value           uniform (4 0 0);
    }
    right
    {
        type            dirichlet;
        value           uniform (4 0 0);
    }
    sides
    {
        type            empty;
    }
}


// ************************************************************************* //
