/*--------------------------------*- C++ -*----------------------------------*\
| =========                 |                                                 |
| \\      /  F ield         | foam-extend: Open Source CFD                    |
|  \\    /   O peration     | Version:     4.1                                |
|   \\  /    A nd           | Web:         http://www.foam-extend.org         |
|    \\/     M anipulation  |                                                 |
\*---------------------------------------------------------------------------*/
FoamFile
{
    version     2.0;
    format      ascii;
    class       cellScalarField;
    location    "18.9";
    object      T;
}
// * * * * * * * * * * * * * * * * * * * * * * * * * * * * * * * * * * * * * //

dimensions      [0 0 0 0 1 0 0];

internalField   nonuniform 
100
(
(4 -5.703630593e-17 1.624202108e-17)
(4 -4.117653648e-17 -4.204603036e-17)
(4 2.303342646e-17 -4.534832943e-17)
(4 -6.801169167e-17 -5.564816505e-17)
(4 6.119255283e-17 -9.298888625e-17)
(4 -4.299323327e-16 6.81477007e-17)
(4 5.225930378e-16 2.483531934e-16)
(4 -1.433331592e-16 1.836471764e-16)
(4 6.016441909e-16 1.405724908e-16)
(4 -1.26209542e-15 5.098295453e-17)
(4 -1.214441123e-16 9.77734525e-17)
(4 1.04157197e-15 1.493319833e-16)
(4 -4.674592445e-16 -2.749221408e-16)
(4 3.046150394e-16 7.643212332e-17)
(4 4.560296779e-16 5.546069326e-16)
(4 1.079298988e-15 -1.638343573e-16)
(4 -6.14320166e-16 3.723097832e-16)
(4 3.213807577e-15 2.185854997e-15)
(4 5.56864702e-14 3.50214495e-14)
(4 9.145694479e-13 5.583092136e-13)
(4 1.405745999e-11 8.183804426e-12)
(4 1.911791009e-10 1.059340417e-10)
(4.000000002 2.367963428e-09 1.264696149e-09)
(4.000000025 2.668263982e-08 1.34415625e-08)
(4.00000026 2.658249437e-07 1.254067823e-07)
(4.000002381 2.342044079e-06 1.031110108e-06)
(4.000019253 1.805780547e-05 7.248162884e-06)
(4.000134217 0.0001176919427 4.171602595e-05)
(4.000784904 0.0006289455035 0.0001917396226)
(4.003793989 0.002723072613 0.0007000207741)
(4.015140838 0.009571877966 0.002038998416)
(4.050249906 0.02756050148 0.004770624183)
(4.140256456 0.06573090934 0.009008248174)
(4.333456203 0.1313251231 0.01371421711)
(4.684247903 0.2221422261 0.01661413743)
(5.228150999 0.3212426167 0.01533246926)
(5.954574057 0.4006575355 0.009176842656)
(6.79690944 0.4344258825 1.598745174e-05)
(7.651074174 0.412493504 -0.008706298111)
(8.413568068 0.345281398 -0.01405910105)
(9.016442862 0.2563648373 -0.01511464598)
(9.441048077 0.1698087256 -0.01289882766)
(9.70885579 0.1008799034 -0.00926510157)
(9.860880888 0.05402327028 -0.005764410938)
(9.938920892 0.02620329764 -0.003160782676)
(9.975310619 0.01156350713 -0.001545896106)
(9.990790044 0.004662773123 -0.0006805583783)
(9.996821387 0.001725018002 -0.000271673252)
(9.998982341 0.000587798478 -9.895279911e-05)
(9.999696941 0.0001851662437 -3.306493326e-05)
(9.999915824 5.411689574e-05 -1.018520093e-05)
(9.999978134 1.472346741e-05 -2.904962124e-06)
(9.999994674 3.741053669e-06 -7.702420892e-07)
(9.99999878 8.904698716e-07 -1.905651542e-07)
(9.999999737 1.991395e-07 -4.414566767e-08)
(9.999999946 4.195837838e-08 -9.606368015e-09)
(9.99999999 8.351296788e-09 -1.969537848e-09)
(9.999999998 1.574190866e-09 -3.815320895e-10)
(10 2.81691875e-10 -7.00187458e-11)
(10 4.795897785e-11 -1.220326952e-11)
(10 7.788144389e-12 -2.025429842e-12)
(10 1.205382909e-12 -3.209683889e-13)
(10 1.733648483e-13 -4.654245358e-14)
(10 2.539021691e-14 -5.59644746e-15)
(10 5.974357493e-15 -2.114712632e-15)
(10 -5.651889515e-16 6.551218787e-16)
(10 -2.217510984e-16 5.617043945e-16)
(10 -1.971744171e-16 6.310385554e-17)
(10 -3.737910666e-16 -6.096533862e-16)
(10 1.345226001e-16 -5.907765746e-16)
(10 -7.045963145e-17 -3.305099468e-16)
(10 2.390456431e-16 -5.884849686e-16)
(10 6.349360695e-17 -5.48714658e-16)
(10 4.640038966e-16 -5.212083296e-17)
(10 -1.826763609e-16 -4.951041801e-16)
(10 1.284485955e-16 1.93289041e-16)
(10 -2.83304275e-16 1.774471742e-16)
(10 9.656645032e-17 -7.573201837e-18)
(10 2.148639621e-16 9.75506407e-17)
(10 -1.293071459e-16 2.124912168e-16)
(10 -1.034256046e-16 2.209745521e-16)
(10 6.463225721e-17 -1.840434418e-17)
(10 -1.485059878e-16 -3.16768656e-16)
(10 -4.970906823e-16 3.981214209e-16)
(10 -1.348259937e-16 -2.188985932e-16)
(10 1.009374298e-16 9.355647709e-17)
(10 -4.662654114e-17 1.315970443e-16)
(10 -1.944794486e-16 -1.371271374e-16)
(10 4.795445654e-16 2.633211776e-17)
(10 -2.048323924e-16 -3.113464589e-16)
(10 3.633989662e-16 -5.756299441e-17)
(10 -6.093430576e-16 4.353692582e-16)
(10 -1.777688296e-16 3.188721117e-16)
(10 7.9413092e-17 3.870328335e-16)
(10 -6.369209476e-17 1.723798926e-16)
(10 -2.149025767e-16 4.995528367e-17)
(10 1.645706223e-16 1.295186216e-16)
(10 -1.13531447e-16 -4.591539751e-16)
(10 1.787802375e-17 -1.707770336e-16)
(10 -1.128856884e-16 3.405260407e-15)
)
;

boundaryField
{
    left
    {
        type            dirichlet;
        value           uniform (4 0 0);
    }
    right
    {
        type            dirichlet;
        value           uniform (4 0 0);
    }
    sides
    {
        type            empty;
    }
}


// ************************************************************************* //
