/*--------------------------------*- C++ -*----------------------------------*\
| =========                 |                                                 |
| \\      /  F ield         | foam-extend: Open Source CFD                    |
|  \\    /   O peration     | Version:     4.1                                |
|   \\  /    A nd           | Web:         http://www.foam-extend.org         |
|    \\/     M anipulation  |                                                 |
\*---------------------------------------------------------------------------*/
FoamFile
{
    version     2.0;
    format      ascii;
    class       cellScalarField;
    location    "7";
    object      T;
}
// * * * * * * * * * * * * * * * * * * * * * * * * * * * * * * * * * * * * * //

dimensions      [0 0 0 0 1 0 0];

internalField   nonuniform 
100
(
(4 3.928476179e-15 -4.714437104e-15)
(4 -2.000918509e-13 3.77857659e-13)
(4 1.360714768e-11 -8.098295922e-12)
(4 -1.778199834e-10 3.071360389e-10)
(4.000000009 1.346606292e-08 3.38734046e-09)
(4.000000074 3.46030315e-08 8.588159072e-08)
(4.00000322 4.82072692e-06 3.18764704e-06)
(4.00005682 5.88478902e-05 2.848331533e-05)
(4.000702534 0.000798898595 0.0005259592747)
(4.009698247 0.01084627391 0.004964506329)
(4.08063506 0.07127836987 0.02045969638)
(4.381821211 0.248128356 0.04185302459)
(5.143118004 0.5168763097 0.04187436244)
(6.385282572 0.7005117596 0.008687679684)
(7.773184223 0.6556465657 -0.02833380597)
(8.884427973 0.4437772311 -0.0396134275)
(9.546167688 0.2256539182 -0.0288565728)
(9.848808229 0.08908682048 -0.01430012046)
(9.958190287 0.02811629371 -0.005293230706)
(9.990250806 0.007281051005 -0.001543298164)
(9.998051951 0.001583380656 -0.0003678363565)
(9.999661238 0.0002951260566 -7.374785331e-05)
(9.999947992 4.799774323e-05 -1.272710871e-05)
(9.99999286 6.91772367e-06 -1.926750698e-06)
(9.999999113 8.954885032e-07 -2.599544488e-07)
(9.999999899 1.053265374e-07 -3.167466323e-08)
(9.999999989 1.136931447e-08 -3.524927383e-09)
(9.999999999 1.136049015e-09 -3.61714302e-10)
(10 1.058731296e-10 -3.450887515e-11)
(10 9.260875498e-12 -3.082271898e-12)
(10 7.645151175e-13 -2.591902451e-13)
(10 6.068830101e-14 -2.106362347e-14)
(10 3.382947485e-15 -2.36198741e-15)
(10 7.762393994e-17 5.111897678e-17)
(10 -7.94750079e-16 3.730940545e-16)
(10 2.20415105e-16 5.066204128e-17)
(10 -7.246397624e-16 -3.099498103e-18)
(10 7.607450953e-16 1.203307539e-15)
(10 -1.694452285e-15 -1.918672757e-16)
(10 2.129281756e-15 6.14913969e-17)
(10 -1.010629833e-15 2.02574667e-16)
(10 9.37184178e-16 -5.863202825e-16)
(10 8.42478582e-18 1.963386253e-16)
(10 -8.398267445e-17 -1.197462329e-16)
(10 -1.802432394e-16 8.088577357e-17)
(10 -4.565825763e-16 4.597795712e-16)
(10 -2.346347156e-16 -5.707944256e-17)
(10 -3.214097191e-16 1.341356232e-16)
(10 2.301993016e-17 5.804495415e-17)
(10 -4.186468441e-16 4.046664792e-17)
(10 -1.414540982e-16 2.060729782e-16)
(10 -2.925745749e-17 9.837406245e-17)
(10 -3.427383468e-16 4.588545731e-16)
(10 -5.619808425e-17 -1.244785569e-16)
(10 1.058440856e-17 -3.079709317e-16)
(10 -1.095728618e-16 1.724493173e-16)
(10 -3.15274972e-16 -3.063104395e-16)
(10 -3.405254463e-16 -2.392138052e-16)
(10 2.895190041e-16 4.494675869e-16)
(10 -4.884724923e-16 4.162309362e-16)
(10 -3.416005078e-17 -2.017949339e-17)
(10 -1.211978972e-16 7.451010497e-17)
(10 -2.0783034e-16 3.386079116e-16)
(10 -3.460344677e-16 -5.48222837e-17)
(10 -4.077308312e-16 -3.072755195e-17)
(10 5.943933883e-16 -4.712290685e-16)
(10 -6.475134384e-18 1.05236753e-16)
(10 -1.593671191e-16 -5.750183036e-16)
(10 3.610322661e-16 -1.397187613e-16)
(10 -5.959907549e-17 -9.052737729e-17)
(10 3.634839453e-16 -1.278542971e-16)
(10 -1.675796112e-16 -3.525298529e-17)
(10 3.711401597e-16 3.213878139e-16)
(10 -4.577580063e-16 -7.78076163e-17)
(10 2.61971127e-16 2.944102588e-17)
(10 -1.365836193e-16 -1.744382481e-17)
(10 2.188365319e-16 -5.564608655e-16)
(10 1.000862126e-15 -5.078880228e-16)
(10 -1.354184948e-16 7.673887687e-17)
(10 -4.236895983e-18 2.400961845e-18)
(10 -1.325615648e-19 7.511991335e-20)
(10 -4.147510002e-21 2.350308647e-21)
(10 -1.297649077e-22 7.353510526e-23)
(10 -4.060009803e-24 2.300724083e-24)
(10 -1.270272518e-25 7.198373196e-26)
(10 -3.974355601e-27 2.252185608e-27)
(10 -1.243473524e-28 7.046508807e-29)
(10 -3.890508449e-30 2.204671151e-30)
(10 -1.217239909e-31 6.897848307e-32)
(10 -3.808430225e-33 2.158159109e-33)
(10 -1.191559747e-34 6.752324105e-35)
(10 -3.728083609e-36 2.112628334e-36)
(10 -1.16642136e-37 6.609870033e-38)
(10 -3.649432069e-39 2.068058123e-39)
(10 -1.141813318e-40 6.470421321e-41)
(10 -3.572439844e-42 2.024428212e-42)
(10 -1.117724433e-43 6.333914564e-44)
(10 -3.497071927e-45 1.981718763e-45)
(10 -1.094143753e-46 6.200287697e-47)
(10 -4.896992359e-16 3.099851318e-15)
)
;

boundaryField
{
    left
    {
        type            dirichlet;
        value           uniform (4 0 0);
    }
    right
    {
        type            dirichlet;
        value           uniform (4 0 0);
    }
    sides
    {
        type            empty;
    }
}


// ************************************************************************* //
