/*--------------------------------*- C++ -*----------------------------------*\
| =========                 |                                                 |
| \\      /  F ield         | foam-extend: Open Source CFD                    |
|  \\    /   O peration     | Version:     4.1                                |
|   \\  /    A nd           | Web:         http://www.foam-extend.org         |
|    \\/     M anipulation  |                                                 |
\*---------------------------------------------------------------------------*/
FoamFile
{
    version     2.0;
    format      ascii;
    class       cellScalarField;
    location    "46.2";
    object      T;
}
// * * * * * * * * * * * * * * * * * * * * * * * * * * * * * * * * * * * * * //

dimensions      [0 0 0 0 1 0 0];

internalField   nonuniform 
100
(
(4 -5.703630593e-17 1.624202108e-17)
(4 -5.468172764e-17 -6.608306164e-17)
(4 -1.468209818e-16 -2.002160618e-16)
(4 -8.527208562e-17 1.860387406e-16)
(4 -1.029617795e-16 8.574926079e-17)
(4 -3.405170969e-16 1.106712824e-16)
(4 4.941328132e-16 1.214928218e-16)
(4 -4.608169326e-16 5.281015416e-17)
(4 6.967245581e-16 8.558705199e-17)
(4 -1.314866837e-15 6.117827236e-17)
(4 4.520919e-16 -2.749881362e-16)
(4 2.726301318e-16 -7.254208607e-17)
(4 8.019951841e-16 1.790345607e-17)
(4 -1.740927475e-16 3.458699196e-16)
(4 2.369699579e-16 -2.485483402e-16)
(4 8.778349005e-17 6.323995909e-17)
(4 -2.163093869e-16 3.786391661e-18)
(4 -3.110318237e-17 3.716837419e-16)
(4 -1.407020048e-16 8.69882603e-17)
(4 1.009069201e-16 8.972345054e-17)
(4 7.784955191e-17 -9.783498582e-17)
(4 2.098224102e-17 -1.114303331e-16)
(4 4.753233639e-17 2.598302799e-16)
(4 -2.208915897e-16 3.70647624e-17)
(4 8.259880732e-18 -3.575487873e-17)
(4 -1.682270105e-18 2.378603086e-16)
(4 3.300714563e-18 -8.984910559e-17)
(4 -2.067040368e-16 8.648117283e-17)
(4 -3.789109404e-16 -1.319137944e-16)
(4 3.301101461e-16 -1.34835007e-16)
(4 1.971973661e-16 4.34443108e-17)
(4 -2.697190669e-16 3.380073034e-16)
(4 -6.410715054e-17 7.052221839e-17)
(4 -4.137188191e-16 2.468416617e-16)
(4 4.747055659e-16 3.357351239e-17)
(4 -4.390094712e-16 1.948235615e-17)
(4 7.918955999e-16 2.423640333e-16)
(4 -7.257112424e-16 -6.975332914e-17)
(4 3.703615778e-16 -4.433397231e-17)
(4 5.369440781e-17 5.241752458e-17)
(4 -1.786244509e-16 1.799533255e-17)
(4 2.108968383e-16 -5.011555587e-17)
(4 -1.247974868e-16 2.552105095e-16)
(4 -2.64499172e-16 1.752003703e-16)
(4 -4.568411873e-16 -2.455657507e-16)
(4 7.278166597e-16 -7.648343752e-17)
(4 -4.148835611e-16 -1.267708887e-16)
(4 7.757874186e-16 6.076655013e-18)
(4 -1.149802285e-15 3.16593222e-17)
(4 5.991373679e-16 -2.463017614e-16)
(4 -7.235616413e-17 -1.139389862e-16)
(4 2.420781246e-17 -6.607580121e-17)
(4 -1.127334986e-16 -6.442399089e-17)
(4 -5.82975883e-17 -1.888413165e-17)
(4 1.036962925e-18 3.267581371e-18)
(4 9.535651855e-17 -1.882158445e-17)
(4 -1.542259494e-16 8.412433495e-17)
(4 -2.071432244e-16 -9.034353036e-17)
(4 5.539800326e-17 -1.960459433e-17)
(4 -1.594233081e-16 -1.169666639e-16)
(4 1.17754151e-15 2.757922769e-16)
(4 4.229658914e-15 2.238948292e-15)
(4 4.459436395e-14 1.953379098e-14)
(4 3.471687474e-13 1.437040374e-13)
(4 2.491148989e-12 9.878165993e-13)
(4 1.673247958e-11 6.361734696e-12)
(4 1.050891151e-10 3.818205374e-11)
(4.000000001 6.150784598e-10 2.127551905e-10)
(4.000000004 3.344933563e-09 1.097243784e-09)
(4.000000022 1.685707377e-08 5.223622764e-09)
(4.000000106 7.855927735e-08 2.290848194e-08)
(4.000000478 3.380573637e-07 9.242377202e-08)
(4.000001995 1.342162826e-06 3.427905265e-07)
(4.000007704 4.915368689e-06 1.168633795e-06)
(4.000027541 1.661079698e-05 3.663369397e-06)
(4.000091238 5.183747125e-05 1.056649157e-05)
(4.000280381 0.0001495527867 2.806850301e-05)
(4.000800439 0.0003994141433 6.873619209e-05)
(4.002126308 0.0009889634507 0.0001553376545)
(4.005265338 0.002273823318 0.0003242729475)
(4.012177607 0.004862577854 0.0006258043028)
(4.026357562 0.009687919391 0.001117131532)
(4.053500536 0.01801215472 0.001844991766)
(4.102058545 0.03130243948 0.00281816739)
(4.183372418 0.05092821055 0.00397687132)
(4.311025645 0.07769228081 0.005172716046)
(4.499176654 0.1112980325 0.006175142871)
(4.759919966 0.1499397752 0.006713774712)
(5.100136584 0.1902278472 0.006551397932)
(5.518657423 0.227586325 0.005565301219)
(6.004685606 0.2570984696 0.003805072782)
(6.53818377 0.2745875032 0.001499911964)
(7.092372075 0.2775989731 -0.0009924038961)
(7.637807042 0.2659627089 -0.003278417182)
(8.146998776 0.2417589415 -0.005030053163)
(8.598384929 0.2087278566 -0.006058525288)
(8.978753421 0.1713470017 -0.006339497714)
(9.283751506 0.1338809756 -0.005988921867)
(9.516699848 0.09966490113 -0.005206663435)
(9.686333999 0.07075691194 -0.004212378776)
)
;

boundaryField
{
    left
    {
        type            dirichlet;
        value           uniform (4 0 0);
    }
    right
    {
        type            dirichlet;
        value           uniform (4 0 0);
    }
    sides
    {
        type            empty;
    }
}


// ************************************************************************* //
