/*--------------------------------*- C++ -*----------------------------------*\
| =========                 |                                                 |
| \\      /  F ield         | foam-extend: Open Source CFD                    |
|  \\    /   O peration     | Version:     4.1                                |
|   \\  /    A nd           | Web:         http://www.foam-extend.org         |
|    \\/     M anipulation  |                                                 |
\*---------------------------------------------------------------------------*/
FoamFile
{
    version     2.0;
    format      ascii;
    class       cellScalarField;
    location    "3.4";
    object      T;
}
// * * * * * * * * * * * * * * * * * * * * * * * * * * * * * * * * * * * * * //

dimensions      [0 0 0 0 1 0 0];

internalField   nonuniform 10((4.00000005 -2.121369222e-07 -3.681780061e-07) (4.000004985 1.714558556e-05 2.210818902e-05) (4.00028825 0.000206453847 -5.51727128e-05) (4.003074565 0.004607737713 0.006277894413) (4.107741126 0.1363944222 0.05700612232) (4.821332465 0.6199363001 0.09410375309) (6.520714271 1.011629615 0.001972564694) (8.388018411 0.7809452718 -0.07700630263) (9.492812071 0.3354225668 -0.05697765948) (9.887421306 0.09083975983 -0.02008758537));

boundaryField
{
    left
    {
        type            dirichlet;
        value           uniform (4 0 0);
    }
    right
    {
        type            dirichlet;
        value           uniform (4 0 0);
    }
    sides
    {
        type            empty;
    }
}


// ************************************************************************* //
