/*--------------------------------*- C++ -*----------------------------------*\
| =========                 |                                                 |
| \\      /  F ield         | foam-extend: Open Source CFD                    |
|  \\    /   O peration     | Version:     4.1                                |
|   \\  /    A nd           | Web:         http://www.foam-extend.org         |
|    \\/     M anipulation  |                                                 |
\*---------------------------------------------------------------------------*/
FoamFile
{
    version     2.0;
    format      ascii;
    class       cellScalarField;
    location    "18";
    object      T;
}
// * * * * * * * * * * * * * * * * * * * * * * * * * * * * * * * * * * * * * //

dimensions      [0 0 0 0 1 0 0];

internalField   nonuniform 
100
(
(4 -5.703630593e-17 1.624202108e-17)
(4 -9.432496642e-17 5.687490458e-17)
(4 -3.261134926e-17 5.829586676e-17)
(4 -6.19978224e-17 -1.678776739e-16)
(4 6.83982203e-17 -1.509643275e-16)
(4 -3.132008472e-16 1.557857894e-16)
(4 5.542439943e-16 -1.308129206e-16)
(4 -6.663668673e-16 1.517845168e-16)
(4 1.093807665e-15 -1.108469187e-16)
(4 -1.538577562e-15 -6.760690305e-17)
(4 4.155781171e-16 9.539858311e-17)
(4 1.246988624e-15 6.761878306e-17)
(4 -4.53433913e-16 4.356580725e-16)
(4 1.524188165e-15 -7.24910694e-16)
(4 3.181852671e-16 -6.970884273e-17)
(4 -2.546937982e-16 1.690053335e-16)
(4 9.070705288e-15 5.96907015e-15)
(4 1.65144285e-13 1.007382132e-13)
(4 2.737331688e-12 1.695792253e-12)
(4 4.250362573e-11 2.460661813e-11)
(4.000000001 5.741974679e-10 3.189796062e-10)
(4.000000007 7.141110386e-09 3.812402934e-09)
(4.000000075 7.976493643e-08 3.983792822e-08)
(4.000000767 7.805215851e-07 3.647912857e-07)
(4.000006898 6.74123252e-06 2.924593587e-06)
(4.000054279 5.027861594e-05 1.959980441e-05)
(4.000362156 0.0003102511677 0.0001049538392)
(4.001993307 0.001541028701 0.0004408828693)
(4.008960115 0.006126068027 0.001453306971)
(4.033015743 0.01962454907 0.00378619538)
(4.100800893 0.05125661118 0.007849499124)
(4.258485064 0.1105478465 0.01297686459)
(4.564818229 0.1992875152 0.01696393617)
(5.067216965 0.3036474986 0.01695956629)
(5.769702594 0.3949811114 0.01151662538)
(6.614679824 0.4426146268 0.002076879205)
(7.496128723 0.430796123 -0.007678391225)
(8.299491836 0.3669056339 -0.01417023406)
(8.943582219 0.2753281273 -0.01593855925)
(9.400712363 0.1831962617 -0.01388396108)
(9.689609393 0.1087230876 -0.01005130237)
(9.853083802 0.05787290991 -0.006249535516)
(9.93633989 0.02777456669 -0.003402430058)
(9.974690941 0.01207771396 -0.001643510701)
(9.990744133 0.004781058672 -0.0007113843805)
(9.996877493 0.001730615203 -0.0002781310774)
(9.999025462 0.0005752482614 -9.888461986e-05)
(9.999717779 0.0001762955391 -3.215767965e-05)
(9.999923939 5.000660578e-05 -9.615712521e-06)
(9.999980867 1.317655526e-05 -2.656238646e-06)
(9.999995495 3.236502153e-06 -6.807926022e-07)
(9.999999004 7.435083514e-07 -1.62536729e-07)
(9.999999793 1.60249307e-07 -3.628088382e-08)
(9.999999959 3.250138473e-08 -7.597724029e-09)
(9.999999992 6.220578866e-09 -1.49747276e-09)
(9.999999999 1.126539636e-09 -2.786138866e-10)
(10 1.935346167e-10 -4.907290811e-11)
(10 3.161471766e-11 -8.2032564e-12)
(10 4.924758363e-12 -1.306052169e-12)
(10 7.306780349e-13 -1.988393724e-13)
(10 9.999808019e-14 -2.762852413e-14)
(10 1.333319622e-14 -3.430789986e-15)
(10 1.554650632e-15 -1.086595469e-15)
(10 -4.774779727e-16 -1.20480264e-16)
(10 2.563602052e-16 -2.479365584e-16)
(10 4.842973919e-17 -9.571940416e-17)
(10 2.812298065e-17 -3.502591736e-16)
(10 -2.806815371e-17 3.400377592e-16)
(10 1.801805522e-16 5.36750368e-16)
(10 -6.835952446e-16 -1.779188807e-16)
(10 4.664380267e-17 -5.175233502e-18)
(10 -2.550640175e-16 2.191403985e-16)
(10 2.57827239e-18 -1.714395963e-17)
(10 -1.374966415e-16 -3.316319161e-16)
(10 2.969564987e-16 -1.63593952e-16)
(10 2.641882652e-16 -2.875701214e-16)
(10 -2.493896759e-16 -3.256388002e-16)
(10 -2.011752319e-16 -2.748738221e-16)
(10 2.776728462e-16 -8.679174964e-17)
(10 8.954608992e-17 -5.039664042e-16)
(10 -1.675364513e-17 -8.745982496e-17)
(10 2.151331757e-16 2.061025484e-16)
(10 -7.040655693e-18 3.250315757e-16)
(10 -1.771366931e-16 -3.531129266e-17)
(10 6.852071662e-17 3.698962992e-16)
(10 -6.265392192e-16 6.609059526e-16)
(10 -2.387982886e-16 6.689454401e-16)
(10 -3.420892029e-16 6.604532641e-16)
(10 1.794329647e-16 5.362366702e-17)
(10 -3.351162519e-17 3.434626725e-16)
(10 -1.649311024e-16 3.329316555e-16)
(10 1.917942847e-17 -5.64632682e-17)
(10 2.393194115e-16 -8.433832215e-17)
(10 7.24855273e-17 3.003826896e-16)
(10 1.087559627e-16 -2.584129396e-16)
(10 1.802082609e-16 -5.874074119e-17)
(10 -1.209022085e-16 2.357636601e-16)
(10 -2.363959662e-18 2.101495314e-16)
(10 4.361501653e-16 1.599741029e-18)
(10 -7.432366492e-16 3.091120707e-15)
)
;

boundaryField
{
    left
    {
        type            dirichlet;
        value           uniform (4 0 0);
    }
    right
    {
        type            dirichlet;
        value           uniform (4 0 0);
    }
    sides
    {
        type            empty;
    }
}


// ************************************************************************* //
