/*--------------------------------*- C++ -*----------------------------------*\
| =========                 |                                                 |
| \\      /  F ield         | foam-extend: Open Source CFD                    |
|  \\    /   O peration     | Version:     4.1                                |
|   \\  /    A nd           | Web:         http://www.foam-extend.org         |
|    \\/     M anipulation  |                                                 |
\*---------------------------------------------------------------------------*/
FoamFile
{
    version     2.0;
    format      ascii;
    class       cellScalarField;
    location    "4.6";
    object      T;
}
// * * * * * * * * * * * * * * * * * * * * * * * * * * * * * * * * * * * * * //

dimensions      [0 0 0 0 1 0 0];

internalField   nonuniform 
100
(
(4 -8.330801252e-10 6.083124148e-10)
(4.00000004 6.246873654e-08 -8.555196078e-09)
(3.999999782 -6.648130464e-07 7.814840245e-07)
(4.000028971 4.714329254e-05 2.061235144e-05)
(4.000338486 0.0002369936397 0.0001829958962)
(4.006578592 0.009208808386 0.006703530164)
(4.104426415 0.1120585981 0.0390287623)
(4.629330554 0.4441933148 0.07100866565)
(5.913734102 0.8156017429 0.03175637698)
(7.613622376 0.8232939435 -0.03963172703)
(8.96654242 0.5089551057 -0.05807655441)
(9.666562986 0.2090876699 -0.0345406473)
(9.917785839 0.06111019322 -0.01253815045)
(9.983984456 0.01347022192 -0.003188932143)
(9.997450796 0.002351880155 -0.0006161154069)
(9.999658245 0.0003385766432 -9.562426131e-05)
(9.999960399 4.15026347e-05 -1.24215196e-05)
(9.999995948 4.444239389e-06 -1.392878184e-06)
(9.999999627 4.243166321e-07 -1.380735622e-07)
(9.999999969 3.671682415e-08 -1.232656966e-08)
(9.999999998 2.917938579e-09 -1.005821203e-09)
(10 2.152885387e-10 -7.591239677e-11)
(10 1.488134078e-11 -5.352186287e-12)
(10 9.685057147e-13 -3.547455458e-13)
(10 5.999404238e-14 -2.259432865e-14)
(10 2.744960149e-15 -4.839643442e-16)
(10 -1.017214169e-15 -7.858298111e-17)
(10 1.181708474e-15 3.726192658e-16)
(10 -1.332248441e-15 1.033647546e-15)
(10 6.930821559e-17 -4.075912335e-16)
(10 8.12774769e-17 -5.449933626e-17)
(10 -1.206537454e-16 2.170251424e-16)
(10 1.107708027e-16 -4.110834697e-16)
(10 -1.911594931e-16 4.505607584e-16)
(10 -3.54560428e-16 1.624548555e-16)
(10 2.507814213e-17 3.420551129e-16)
(10 -1.506604308e-16 3.347121032e-17)
(10 -1.186589593e-16 7.243594693e-17)
(10 -2.074265275e-16 3.383534401e-16)
(10 -3.460090577e-16 -5.483802984e-17)
(10 -4.0772936e-16 -3.07284539e-17)
(10 5.943934702e-16 -4.712291169e-16)
(10 -6.475130623e-18 1.05236751e-16)
(10 -1.59367119e-16 -5.750183037e-16)
(10 3.610322661e-16 -1.397187613e-16)
(10 -5.959907549e-17 -9.052737729e-17)
(10 3.634839453e-16 -1.278542971e-16)
(10 -1.675796112e-16 -3.525298529e-17)
(10 3.711401597e-16 3.213878139e-16)
(10 -4.577580063e-16 -7.78076163e-17)
(10 2.61971127e-16 2.944102588e-17)
(10 -1.365836193e-16 -1.744382481e-17)
(10 2.188365319e-16 -5.564608655e-16)
(10 1.000862126e-15 -5.078880228e-16)
(10 -1.354184948e-16 7.673887687e-17)
(10 -4.236895983e-18 2.400961845e-18)
(10 -1.325615648e-19 7.511991335e-20)
(10 -4.147510002e-21 2.350308647e-21)
(10 -1.297649077e-22 7.353510526e-23)
(10 -4.060009803e-24 2.300724083e-24)
(10 -1.270272518e-25 7.198373196e-26)
(10 -3.974355601e-27 2.252185608e-27)
(10 -1.243473524e-28 7.046508807e-29)
(10 -3.890508449e-30 2.204671151e-30)
(10 -1.217239909e-31 6.897848307e-32)
(10 -3.808430225e-33 2.158159109e-33)
(10 -1.191559747e-34 6.752324105e-35)
(10 -3.728083609e-36 2.112628334e-36)
(10 -1.16642136e-37 6.609870033e-38)
(10 -3.649432069e-39 2.068058123e-39)
(10 -1.141813318e-40 6.470421321e-41)
(10 -3.572439844e-42 2.024428212e-42)
(10 -1.117724433e-43 6.333914564e-44)
(10 -3.497071927e-45 1.981718763e-45)
(10 -1.094143753e-46 6.200287697e-47)
(10 -3.42329405e-48 1.939910357e-48)
(10 -1.071060555e-49 6.069479961e-50)
(10 -3.351072669e-51 1.898983985e-51)
(10 -1.048464345e-52 5.941431881e-53)
(10 -3.280374945e-54 1.858921038e-54)
(10 -1.026344847e-55 5.816085238e-56)
(10 -3.211168734e-57 1.819703301e-57)
(10 -1.004692006e-58 5.693383038e-59)
(10 -3.143422569e-60 1.781312942e-60)
(10 -9.834959756e-62 5.573269491e-62)
(10 -3.077105648e-63 1.743732507e-63)
(10 -9.627471188e-65 5.455689985e-65)
(10 -3.012187818e-66 1.706944907e-66)
(10 -9.424360014e-68 5.340591059e-68)
(10 -2.948639562e-69 1.670933417e-69)
(10 -9.225533886e-71 5.22792038e-71)
(10 -2.886431987e-72 1.635681663e-72)
(10 -9.030902402e-74 5.117626719e-74)
(10 -2.825536807e-75 1.601173617e-75)
(10 -8.840377066e-77 5.009659929e-77)
(10 -2.765926336e-78 1.567393588e-78)
(10 -8.653871251e-80 4.903970918e-80)
(10 -2.707573469e-81 1.534326218e-81)
(10 -8.471300157e-83 4.800511633e-83)
(10 -1.525939638e-15 3.908863427e-15)
)
;

boundaryField
{
    left
    {
        type            dirichlet;
        value           uniform (4 0 0);
    }
    right
    {
        type            dirichlet;
        value           uniform (4 0 0);
    }
    sides
    {
        type            empty;
    }
}


// ************************************************************************* //
