/*--------------------------------*- C++ -*----------------------------------*\
| =========                 |                                                 |
| \\      /  F ield         | foam-extend: Open Source CFD                    |
|  \\    /   O peration     | Version:     4.1                                |
|   \\  /    A nd           | Web:         http://www.foam-extend.org         |
|    \\/     M anipulation  |                                                 |
\*---------------------------------------------------------------------------*/
FoamFile
{
    version     2.0;
    format      ascii;
    class       cellScalarField;
    location    "5.7";
    object      T;
}
// * * * * * * * * * * * * * * * * * * * * * * * * * * * * * * * * * * * * * //

dimensions      [0 0 0 0 1 0 0];

internalField   nonuniform 10((4 5.463267672e-12 2.802388512e-12) (4 -2.694964008e-10 -1.075643585e-10) (4.000000004 1.135903968e-08 7.101385441e-09) (4.000000056 -4.028451134e-08 -3.75999081e-08) (4.000002152 4.184683638e-06 4.088409156e-06) (4.000067109 7.144214984e-05 2.551120689e-05) (4.000759411 0.0008418729453 0.0006874768987) (4.013628357 0.0165610767 0.008382657706) (4.13055725 0.1194845772 0.03389584499) (4.620027598 0.3921026019 0.05692040681));

boundaryField
{
    left
    {
        type            dirichlet;
        value           uniform (4 0 0);
    }
    right
    {
        type            dirichlet;
        value           uniform (4 0 0);
    }
    sides
    {
        type            empty;
    }
}


// ************************************************************************* //
