-0.9475 -1
-0.85 -1
-0.75 -1
-0.65 -1
-0.55 -1
-0.45 -1
-0.35 -1
-0.25 -1
-0.15 -1
-0.05 -1
0.05 1
0.15 1
0.25 1
0.35 1
0.45 1
0.55 1
0.65 1
0.75 1
0.85 1
