/*--------------------------------*- C++ -*----------------------------------*\
| =========                 |                                                 |
| \\      /  F ield         | foam-extend: Open Source CFD                    |
|  \\    /   O peration     | Version:     4.1                                |
|   \\  /    A nd           | Web:         http://www.foam-extend.org         |
|    \\/     M anipulation  |                                                 |
\*---------------------------------------------------------------------------*/
FoamFile
{
    version     2.0;
    format      ascii;
    class       cellScalarField;
    location    "1.6";
    object      T;
}
// * * * * * * * * * * * * * * * * * * * * * * * * * * * * * * * * * * * * * //

dimensions      [0 0 0 0 1 0 0];

internalField   nonuniform 10((4.000156418 -0.002434652479 -0.001162757524) (4.063544326 0.1328572296 0.1107834307) (5.267077594 1.161556419 0.1482617367) (7.953334976 1.255976191 -0.14510083) (9.572086214 0.3901824465 -0.09383408714) (9.948511887 0.05615826136 -0.01699841437) (9.995606957 0.005281768339 -0.001784832096) (9.999700126 0.0003834287191 -0.000138398577) (9.999982465 2.340396831e-05 -8.833905982e-06) (9.999999084 1.26163708e-06 -4.920659521e-07));

boundaryField
{
    left
    {
        type            dirichlet;
        value           uniform (4 0 0);
    }
    right
    {
        type            dirichlet;
        value           uniform (4 0 0);
    }
    sides
    {
        type            empty;
    }
}


// ************************************************************************* //
